 vasp.5.4.4.18Apr17-6-g9f103f2a35 (build Apr 16 2019 21:13:15) complex          
  
 executed on             OCC_CTRL date 2019.04.21  16:36:42
 running on   44 total cores
 distrk:  each k-point on   44 cores,    1 groups
 distr:  one band on NCORES_PER_BAND=  22 cores,    2 groups


--------------------------------------------------------------------------------------------------------


 INCAR:
 POTCAR:    PAW_PBE Ti_sv 26Sep2005               
 POTCAR:    PAW_PBE O 08Apr2002                   

 ----------------------------------------------------------------------------- 
|                                                                             |
|           W    W    AA    RRRRR   N    N  II  N    N   GGGG   !!!           |
|           W    W   A  A   R    R  NN   N  II  NN   N  G    G  !!!           |
|           W    W  A    A  R    R  N N  N  II  N N  N  G       !!!           |
|           W WW W  AAAAAA  RRRRR   N  N N  II  N  N N  G  GGG   !            |
|           WW  WW  A    A  R   R   N   NN  II  N   NN  G    G                |
|           W    W  A    A  R    R  N    N  II  N    N   GGGG   !!!           |
|                                                                             |
|      For optimal performance we recommend to set                            |
|        NCORE= 4 - approx SQRT( number of cores)                             |
|      NCORE specifies how many cores store one orbital (NPAR=cpu/NCORE).     |
|      This setting can  greatly improve the performance of VASP for DFT.     |
|      The default,   NCORE=1            might be grossly inefficient         |
|      on modern multi-core architectures or massively parallel machines.     |
|      Do your own testing !!!!                                               |
|      Unfortunately you need to use the default for GW and RPA calculations. |
|      (for HF NCORE is supported but not extensively tested yet)             |
|                                                                             |
 ----------------------------------------------------------------------------- 

 POTCAR:    PAW_PBE Ti_sv 26Sep2005               
  local pseudopotential read in
  partial core-charges read in
  partial kinetic energy density read in
  atomic valenz-charges read in
  non local Contribution for L=           0  read in
    real space projection operators read in
  non local Contribution for L=           0  read in
    real space projection operators read in
  non local Contribution for L=           1  read in
    real space projection operators read in
  non local Contribution for L=           1  read in
    real space projection operators read in
  non local Contribution for L=           2  read in
    real space projection operators read in
  non local Contribution for L=           2  read in
    real space projection operators read in
    PAW grid and wavefunctions read in
 
   number of l-projection  operators is LMAX  =           6
   number of lm-projection operators is LMMAX =          18
 
 POTCAR:    PAW_PBE O 08Apr2002                   
  local pseudopotential read in
  partial core-charges read in
  partial kinetic energy density read in
  kinetic energy density of atom read in
  atomic valenz-charges read in
  non local Contribution for L=           0  read in
    real space projection operators read in
  non local Contribution for L=           0  read in
    real space projection operators read in
  non local Contribution for L=           1  read in
    real space projection operators read in
  non local Contribution for L=           1  read in
    real space projection operators read in
    PAW grid and wavefunctions read in
 
   number of l-projection  operators is LMAX  =           4
   number of lm-projection operators is LMMAX =           8
 

 ----------------------------------------------------------------------------- 
|                                                                             |
|  ADVICE TO THIS USER RUNNING 'VASP/VAMP'   (HEAR YOUR MASTER'S VOICE ...):  |
|                                                                             |
|      You have a (more or less) 'large supercell' and for larger cells       |
|      it might be more efficient to use real space projection opertators     |
|      So try LREAL= Auto  in the INCAR   file.                               |
|      Mind:          For very  accurate calculation you might also keep the  |
|      reciprocal projection scheme          (i.e. LREAL=.FALSE.)             |
|                                                                             |
 ----------------------------------------------------------------------------- 

  PAW_PBE Ti_sv 26Sep2005               :
 energy of atom  1       EATOM=-1588.0892
 kinetic energy error for atom=    0.0139 (will be added to EATOM!!)
  PAW_PBE O 08Apr2002                   :
 energy of atom  2       EATOM= -432.3788
 kinetic energy error for atom=    0.1156 (will be added to EATOM!!)
 
  
 Occupation matrix control coded by Prof. Graeme Watson 
 at Trinity College Dublin
  
 Occupation set for the following atoms 
  
 
 POSCAR: generated by phonopy                    
  positions in direct lattice
  velocities in cartesian coordinates
 exchange correlation table for  LEXCH =        8
   RHO(1)=    0.500       N(1)  =     2000
   RHO(2)=  100.500       N(2)  =     4000
 


--------------------------------------------------------------------------------------------------------


 ion  position               nearest neighbor table
   1  0.000  0.000  0.999-  64 1.94  66 1.94  88 1.95  82 1.95  37 2.01 100 2.01
   2  0.334  1.000  1.000-  65 1.94  89 1.94  64 1.95  83 1.95 101 2.01  38 2.01
   3  0.666  1.000  1.000-  65 1.94  90 1.94  66 1.95  84 1.95 102 2.01  39 2.01
   4  1.000  0.333  0.000-  85 1.94  82 1.94  67 1.94  69 1.94  40 2.01 103 2.01
   5  0.333  0.333  0.001-  86 1.94  83 1.94  68 1.95  67 1.95 104 2.01  41 2.01
   6  0.667  0.333  0.001-  87 1.94  84 1.94  68 1.95  69 1.95 105 2.01  42 2.01
   7  1.000  0.667  0.999-  72 1.94  70 1.94  88 1.95  85 1.95  43 2.01 106 2.01
   8  0.334  0.667  1.000-  89 1.94  71 1.94  86 1.95  70 1.95 107 2.01  44 2.01
   9  0.666  0.667  1.000-  90 1.94  71 1.94  87 1.95  72 1.95 108 2.01  45 2.01
  10  0.167  0.167  0.500-  56 1.94  73 1.94  55 1.95  76 1.95  46 2.02  91 2.02
  11  0.500  0.166  0.503-  74 1.90  77 1.95  56 1.96  57 1.96  47 2.03  92 2.03
  12  0.833  0.167  0.500-  57 1.94  75 1.94  55 1.95  78 1.95  48 2.02  93 2.02
  13  0.167  0.500  0.500-  59 1.94  79 1.94  58 1.95  76 1.95  94 2.02  49 2.02
  14  0.500  0.500  0.503-  80 1.90  77 1.95  59 1.96  60 1.96  50 2.03  95 2.03
  15  0.833  0.500  0.500-  60 1.94  81 1.94  58 1.95  78 1.95  96 2.02  51 2.02
  16  0.167  0.833  0.497-  62 1.90  61 1.95  73 1.96  79 1.96  97 2.03  52 2.03
  17  0.500  0.833  0.500-  74 2.00  62 2.00  63 2.00  80 2.00  53 2.05  98 2.05
  18  0.833  0.833  0.497-  63 1.90  61 1.95  75 1.96  81 1.96  99 2.03  54 2.03
  19  0.000  0.167  0.250-  37 1.94  91 1.95  93 1.95  40 1.95  55 2.01  82 2.02
  20  0.334  0.166  0.251-  38 1.94  92 1.94  41 1.95  91 1.95  56 2.01  83 2.02
  21  0.666  0.166  0.251-  39 1.94  92 1.94  42 1.95  93 1.95  57 2.01  84 2.02
  22  0.000  0.500  0.250-  43 1.94  96 1.95  94 1.95  40 1.95  58 2.01  85 2.02
  23  0.334  0.500  0.251-  44 1.94  95 1.94  41 1.95  94 1.95  59 2.01  86 2.02
  24  0.666  0.500  0.251-  45 1.94  95 1.94  42 1.95  96 1.95  60 2.01  87 2.02
  25  0.000  0.833  0.249-  99 1.93  97 1.93  37 1.95  43 1.95  61 2.00  88 2.02
  26  0.334  0.833  0.251-  98 1.94  38 1.95  44 1.95  97 1.95  62 1.97  89 2.03
  27  0.666  0.833  0.251-  98 1.94  39 1.95  45 1.95  99 1.95  63 1.97  90 2.03
  28  0.167  1.000  0.749- 101 1.94  52 1.94 100 1.95  46 1.95  73 2.01  64 2.02
  29  0.500  1.000  0.749-  53 1.94 101 1.95 102 1.95  47 1.95  74 1.97  65 2.03
  30  0.833  1.000  0.749- 102 1.94  54 1.94 100 1.95  48 1.95  75 2.01  66 2.02
  31  0.167  0.333  0.750- 104 1.94  46 1.95  49 1.95 103 1.95  76 2.01  67 2.02
  32  0.500  0.333  0.751-  47 1.93  50 1.93 104 1.95 105 1.95  77 2.00  68 2.02
  33  0.833  0.333  0.750- 105 1.94  48 1.95  51 1.95 103 1.95  78 2.01  69 2.02
  34  0.167  0.667  0.749- 107 1.94  52 1.94 106 1.95  49 1.95  79 2.01  70 2.02
  35  0.500  0.667  0.749-  53 1.94 108 1.95 107 1.95  50 1.95  80 1.97  71 2.03
  36  0.833  0.667  0.749- 108 1.94  54 1.94 106 1.95  51 1.95  81 2.01  72 2.02
  37  0.000  0.000  0.205-  19 1.94  25 1.95   1 2.01
  38  0.333  0.000  0.206-  20 1.94  26 1.95   2 2.01
  39  0.667  0.000  0.206-  21 1.94  27 1.95   3 2.01
  40  1.000  0.333  0.206-  19 1.95  22 1.95   4 2.01
  41  0.334  0.333  0.207-  20 1.95  23 1.95   5 2.01
  42  0.666  0.333  0.207-  21 1.95  24 1.95   6 2.01
  43  0.000  0.666  0.205-  22 1.94  25 1.95   7 2.01
  44  0.333  0.666  0.206-  23 1.94  26 1.95   8 2.01
  45  0.667  0.666  0.206-  24 1.94  27 1.95   9 2.01
  46  0.167  0.167  0.707-  31 1.95  28 1.95  10 2.02
  47  0.500  0.168  0.710-  32 1.93  29 1.95  11 2.03
  48  0.833  0.167  0.707-  33 1.95  30 1.95  12 2.02
  49  0.167  0.500  0.707-  31 1.95  34 1.95  13 2.02
  50  0.500  0.499  0.710-  32 1.93  35 1.95  14 2.03
  51  0.833  0.500  0.707-  33 1.95  36 1.95  15 2.02
  52  0.167  0.833  0.706-  34 1.94  28 1.94  16 2.03
  53  0.500  0.833  0.711-  29 1.94  35 1.94  17 2.05
  54  0.833  0.833  0.706-  36 1.94  30 1.94  18 2.03
  55  1.000  0.167  0.456-  12 1.95  10 1.95  19 2.01
  56  0.333  0.168  0.457-  10 1.94  11 1.96  20 2.01
  57  0.667  0.168  0.457-  12 1.94  11 1.96  21 2.01
  58  1.000  0.499  0.456-  15 1.95  13 1.95  22 2.01
  59  0.333  0.499  0.457-  13 1.94  14 1.96  23 2.01
  60  0.667  0.499  0.457-  15 1.94  14 1.96  24 2.01
  61  1.000  0.833  0.454-  18 1.95  16 1.95  25 2.00
  62  0.329  0.833  0.453-  16 1.90  26 1.97  17 2.00
  63  0.671  0.833  0.453-  18 1.90  27 1.97  17 2.00
  64  0.166  0.000  0.956-   1 1.94   2 1.95  28 2.02
  65  0.500  0.001  0.958-   3 1.94   2 1.94  29 2.03
  66  0.834  0.000  0.956-   1 1.94   3 1.95  30 2.02
  67  0.166  0.333  0.957-   4 1.94   5 1.95  31 2.02
  68  0.500  0.333  0.959-   6 1.95   5 1.95  32 2.02
  69  0.834  0.333  0.957-   4 1.94   6 1.95  33 2.02
  70  0.166  0.666  0.956-   7 1.94   8 1.95  34 2.02
  71  0.500  0.666  0.958-   9 1.94   8 1.94  35 2.03
  72  0.834  0.666  0.956-   7 1.94   9 1.95  36 2.02
  73  0.166  0.001  0.543-  10 1.94  16 1.96  28 2.01
  74  0.500  0.004  0.547-  11 1.90  29 1.97  17 2.00
  75  0.834  0.001  0.543-  12 1.94  18 1.96  30 2.01
  76  0.166  0.333  0.544-  13 1.95  10 1.95  31 2.01
  77  0.500  0.333  0.546-  11 1.95  14 1.95  32 2.00
  78  0.834  0.333  0.544-  15 1.95  12 1.95  33 2.01
  79  0.166  0.666  0.543-  13 1.94  16 1.96  34 2.01
  80  0.500  0.662  0.547-  14 1.90  35 1.97  17 2.00
  81  0.834  0.666  0.543-  15 1.94  18 1.96  36 2.01
  82  1.000  0.167  0.043-   4 1.94   1 1.95  19 2.02
  83  0.333  0.167  0.044-   5 1.94   2 1.95  20 2.02
  84  0.667  0.167  0.044-   6 1.94   3 1.95  21 2.02
  85  1.000  0.500  0.043-   4 1.94   7 1.95  22 2.02
  86  0.333  0.500  0.044-   5 1.94   8 1.95  23 2.02
  87  0.667  0.500  0.044-   6 1.94   9 1.95  24 2.02
  88  0.000  0.833  0.041-   7 1.95   1 1.95  25 2.02
  89  0.333  0.833  0.042-   8 1.94   2 1.94  26 2.03
  90  0.667  0.833  0.042-   9 1.94   3 1.94  27 2.03
  91  0.167  0.167  0.293-  19 1.95  20 1.95  10 2.02
  92  0.500  0.166  0.294-  21 1.94  20 1.94  11 2.03
  93  0.833  0.167  0.293-  19 1.95  21 1.95  12 2.02
  94  0.167  0.500  0.293-  22 1.95  23 1.95  13 2.02
  95  0.500  0.501  0.294-  23 1.94  24 1.94  14 2.03
  96  0.833  0.500  0.293-  22 1.95  24 1.95  15 2.02
  97  0.166  0.833  0.290-  25 1.93  26 1.95  16 2.03
  98  0.500  0.833  0.289-  26 1.94  27 1.94  17 2.05
  99  0.834  0.833  0.290-  25 1.93  27 1.95  18 2.03
 100  1.000  1.000  0.793-  30 1.95  28 1.95   1 2.01
 101  0.333  0.001  0.794-  28 1.94  29 1.95   2 2.01
 102  0.667  0.001  0.794-  30 1.94  29 1.95   3 2.01
 103  1.000  0.333  0.794-  33 1.95  31 1.95   4 2.01
 104  0.333  0.333  0.795-  31 1.94  32 1.95   5 2.01
 105  0.667  0.333  0.795-  33 1.94  32 1.95   6 2.01
 106  0.000  0.667  0.793-  34 1.95  36 1.95   7 2.01
 107  0.333  0.666  0.794-  34 1.94  35 1.95   8 2.01
 108  0.667  0.666  0.794-  36 1.94  35 1.95   9 2.01
 

IMPORTANT INFORMATION: All symmetrisations will be switched off!
NOSYMM: (Re-)initialisation of all symmetry stuff for point group C_1.

 
 
 KPOINTS: TiO2                                    

Automatic generation of k-mesh.
Space group operators:
 irot       det(A)        alpha          n_x          n_y          n_z        tau_x        tau_y        tau_z
    1     1.000000     0.000000     1.000000     0.000000     0.000000     0.000000     0.000000     0.000000
 
 Subroutine IBZKPT returns following result:
 ===========================================
 
 Found      8 irreducible k-points:
 
 Following reciprocal coordinates:
            Coordinates               Weight
  0.000000  0.000000  0.000000      1.000000
  0.500000  0.000000  0.000000      1.000000
  0.000000  0.500000  0.000000      1.000000
  0.500000  0.500000  0.000000      1.000000
  0.000000  0.000000  0.500000      1.000000
  0.500000  0.000000  0.500000      1.000000
  0.000000  0.500000  0.500000      1.000000
  0.500000  0.500000  0.500000      1.000000
 
 Following cartesian coordinates:
            Coordinates               Weight
  0.000000  0.000000  0.000000      1.000000
  0.043828  0.000000  0.000000      1.000000
  0.000000  0.043828  0.000000      1.000000
  0.043828  0.043828  0.000000      1.000000
  0.000000  0.000000  0.051294      1.000000
  0.043828  0.000000  0.051294      1.000000
  0.000000  0.043828  0.051294      1.000000
  0.043828  0.043828  0.051294      1.000000
 
 TETIRR: Found     24 inequivalent tetrahedra from       48


--------------------------------------------------------------------------------------------------------




 Dimension of arrays:
   k-points           NKPTS =      8   k-points in BZ     NKDIM =      8   number of bands    NBANDS=    520
   number of dos      NEDOS =   3000   number of ions     NIONS =    108
   non local maximal  LDIM  =      6   non local SUM 2l+1 LMDIM =     18
   total plane-waves  NPLWV = 409600
   max r-space proj   IRMAX =      1   max aug-charges    IRDMAX=  12733
   dimension x,y,z NGX =    80 NGY =   80 NGZ =   64
   dimension x,y,z NGXF=   160 NGYF=  160 NGZF=  128
   support grid    NGXF=   160 NGYF=  160 NGZF=  128
   ions per type =              36  72
   NGX,Y,Z   is equivalent  to a cutoff of  11.66, 11.66, 10.92 a.u.
   NGXF,Y,Z  is equivalent  to a cutoff of  23.32, 23.32, 21.83 a.u.

 SYSTEM =  TiO2                                    
 POSCAR =  generated by phonopy                    

 Startparameter for this run:
   NWRITE =      1    write-flag & timer
   PREC   = a         normal or accurate (medium, high low for compatibility)
   ISTART =      1    job   : 0-new  1-cont  2-samecut
   ICHARG =      0    charge: 1-file 2-atom 10-const
   ISPIN  =      2    spin polarized calculation?
   LNONCOLLINEAR =      F non collinear calculations
   LSORBIT =      F    spin-orbit coupling
   INIWAV =      1    electr: 0-lowe 1-rand  2-diag
   LASPH  =      F    aspherical Exc in radial PAW
   METAGGA=      F    non-selfconsistent MetaGGA calc.

 Electronic Relaxation 1
   ENCUT  =  400.0 eV  29.40 Ry    5.42 a.u.  18.60 18.60 15.90*2*pi/ulx,y,z
   ENINI  =  400.0     initial cutoff
   ENAUG  =  605.4 eV  augmentation charge cutoff
   NELM   =   2000;   NELMIN=  5; NELMDL=  0     # of ELM steps 
   EDIFF  = 0.1E-04   stopping-criterion for ELM
   LREAL  =      F    real-space projection
   NLSPLINE    = F    spline interpolate recip. space projectors
   LCOMPAT=      F    compatible to vasp.4.4
   GGA_COMPAT  = T    GGA compatible to vasp.4.4-vasp.4.6
   LMAXPAW     = -100 max onsite density
   LMAXMIX     =    4 max onsite mixed and CHGCAR
   VOSKOWN=      0    Vosko Wilk Nusair interpolation
   ROPT   =    0.00000   0.00000
 Ionic relaxation
   EDIFFG = -.1E-01   stopping-criterion for IOM
   NSW    =      0    number of steps for IOM
   NBLOCK =      1;   KBLOCK =      1    inner block; outer block 
   IBRION =     -1    ionic relax: 0-MD 1-quasi-New 2-CG
   NFREE  =      0    steps in history (QN), initial steepest desc. (CG)
   ISIF   =      2    stress and relaxation
   IWAVPR =     10    prediction:  0-non 1-charg 2-wave 3-comb
   ISYM   =      0    0-nonsym 1-usesym 2-fastsym
   LCORR  =      T    Harris-Foulkes like correction to forces

   POTIM  = 0.5000    time-step for ionic-motion
   TEIN   =    0.0    initial temperature
   TEBEG  =    0.0;   TEEND  =   0.0 temperature during run
   SMASS  =  -3.00    Nose mass-parameter (am)
   estimated Nose-frequenzy (Omega)   =  0.10E-29 period in steps =****** mass=  -0.297E-26a.u.
   SCALEE = 1.0000    scale energy and forces
   NPACO  =    256;   APACO  = 16.0  distance and # of slots for P.C.
   PSTRESS=    0.0 pullay stress

  Mass of Ions in am
   POMASS =  47.88 16.00
  Ionic Valenz
   ZVAL   =  12.00  6.00
  Atomic Wigner-Seitz radii
   RWIGS  =  -1.00 -1.00
  virtual crystal weights 
   VCA    =   1.00  1.00
   NELECT =     865.0000    total number of electrons
   NUPDOWN=      -1.0000    fix difference up-down

 DOS related values:
   EMIN   = -15.00;   EMAX   = 15.00  energy-range for DOS
   EFERMI =   0.00
   ISMEAR =    -5;   SIGMA  =   0.20  broadening in eV -4-tet -1-fermi 0-gaus

 Electronic relaxation 2 (details)
   IALGO  =     38    algorithm
   LDIAG  =      T    sub-space diagonalisation (order eigenvalues)
   LSUBROT=      F    optimize rotation matrix (better conditioning)
   TURBO    =      0    0=normal 1=particle mesh
   IRESTART =      0    0=no restart 2=restart with 2 vectors
   NREBOOT  =      0    no. of reboots
   NMIN     =      0    reboot dimension
   EREF     =   0.00    reference energy to select bands
   IMIX   =      4    mixing-type and parameters
     AMIX     =   0.40;   BMIX     =  1.00
     AMIX_MAG =   1.60;   BMIX_MAG =  1.00
     AMIN     =   0.10
     WC   =   100.;   INIMIX=   1;  MIXPRE=   1;  MAXMIX= -45

 Intra band minimization:
   WEIMIN = 0.0000     energy-eigenvalue tresh-hold
   EBREAK =  0.48E-08  absolut break condition
   DEPER  =   0.30     relativ break condition  

   TIME   =   0.40     timestep for ELM

  volume/ion in A,a.u.               =      11.75        79.27
  Fermi-wavevector in a.u.,A,eV,Ry     =   1.440906  2.722918 28.248568  2.076211
  Thomas-Fermi vector in A             =   2.559598
 
 Write flags
   LWAVE        =      T    write WAVECAR
   LDOWNSAMPLE  =      F    k-point downsampling of WAVECAR
   LCHARG       =      T    write CHGCAR
   LVTOT        =      F    write LOCPOT, total local potential
   LVHAR        =      F    write LOCPOT, Hartree potential only
   LELF         =      F    write electronic localiz. function (ELF)
   LORBIT       =     11    0 simple, 1 ext, 2 COOP (PROOUT), +10 PAW based schemes


 Dipole corrections
   LMONO  =      F    monopole corrections only (constant potential shift)
   LDIPOL =      F    correct potential (dipole corrections)
   IDIPOL =      0    1-x, 2-y, 3-z, 4-all directions 
   EPSILON=  1.0000000 bulk dielectric constant

 LDA+U is selected, type is set to LDAUTYPE =  2
   angular momentum for each species LDAUL =     2    2
   U (eV)           for each species LDAUU =   4.2  0.0
   J (eV)           for each species LDAUJ =   0.0  0.0
 Exchange correlation treatment:
   GGA     =    --    GGA type
   LEXCH   =     8    internal setting for exchange type
   VOSKOWN=      0    Vosko Wilk Nusair interpolation
   LHFCALC =     F    Hartree Fock is set to
   LHFONE  =     F    Hartree Fock one center treatment
   AEXX    =    0.0000 exact exchange contribution

 Linear response parameters
   LEPSILON=     F    determine dielectric tensor
   LRPA    =     F    only Hartree local field effects (RPA)
   LNABLA  =     F    use nabla operator in PAW spheres
   LVEL    =     F    velocity operator in full k-point grid
   LINTERFAST=   F  fast interpolation
   KINTER  =     0    interpolate to denser k-point grid
   CSHIFT  =0.1000    complex shift for real part using Kramers Kronig
   OMEGAMAX=  -1.0    maximum frequency
   DEG_THRESHOLD= 0.2000000E-02 threshold for treating states as degnerate
   RTIME   =   -0.100 relaxation time in fs
  (WPLASMAI=    0.000 imaginary part of plasma frequency in eV, 0.658/RTIME)
   DFIELD  = 0.0000000 0.0000000 0.0000000 field for delta impulse in time
 
 Orbital magnetization related:
   ORBITALMAG=     F  switch on orbital magnetization
   LCHIMAG   =     F  perturbation theory with respect to B field
   DQ        =  0.001000  dq finite difference perturbation B field
   LLRAUG    =     F  two centre corrections for induced B field



--------------------------------------------------------------------------------------------------------


 Static calculation
 charge density and potential will be updated during run
 spin polarized calculation
 Variant of blocked Davidson
 Davidson routine will perform the subspace rotation
 perform sub-space diagonalisation
    after iterative eigenvector-optimisation
 modified Broyden-mixing scheme, WC =      100.0
 initial mixing is a Kerker type mixing with AMIX =  0.4000 and BMIX =      1.0000
 Hartree-type preconditioning will be used
 using additional bands           87
 reciprocal scheme for non local part
 use partial core corrections
 calculate Harris-corrections to forces 
   (improved forces if not selfconsistent)
 use gradient corrections 
 use of overlap-Matrix (Vanderbilt PP)
 Fermi weights with tetrahedron method with Bloechl corrections


--------------------------------------------------------------------------------------------------------


  energy-cutoff  :      400.00
  volume of cell :     1268.63
      direct lattice vectors                 reciprocal lattice vectors
    11.408128739  0.000000000  0.000000000     0.087656795  0.000000000  0.000000000
     0.000000000 11.408128739  0.000000000     0.000000000  0.087656795  0.000000000
     0.000000000  0.000000000  9.747752190     0.000000000  0.000000000  0.102587754

  length of vectors
    11.408128739 11.408128739  9.747752190     0.087656795  0.087656795  0.102587754


 
 old parameters found on file WAVECAR:
  energy-cutoff  :      400.00
  volume of cell :     1268.63
      direct lattice vectors                 reciprocal lattice vectors
    11.408128739  0.000000000  0.000000000     0.087656795  0.000000000  0.000000000
     0.000000000 11.408128739  0.000000000     0.000000000  0.087656795  0.000000000
     0.000000000  0.000000000  9.747752190     0.000000000  0.000000000  0.102587754

  length of vectors

 
 k-points in units of 2pi/SCALE and weight: TiO2                                    
   0.00000000  0.00000000  0.00000000       0.125
   0.04382840  0.00000000  0.00000000       0.125
   0.00000000  0.04382840  0.00000000       0.125
   0.04382840  0.04382840  0.00000000       0.125
   0.00000000  0.00000000  0.05129388       0.125
   0.04382840  0.00000000  0.05129388       0.125
   0.00000000  0.04382840  0.05129388       0.125
   0.04382840  0.04382840  0.05129388       0.125
 
 k-points in reciprocal lattice and weights: TiO2                                    
   0.00000000  0.00000000  0.00000000       0.125
   0.50000000  0.00000000  0.00000000       0.125
   0.00000000  0.50000000  0.00000000       0.125
   0.50000000  0.50000000  0.00000000       0.125
   0.00000000  0.00000000  0.50000000       0.125
   0.50000000  0.00000000  0.50000000       0.125
   0.00000000  0.50000000  0.50000000       0.125
   0.50000000  0.50000000  0.50000000       0.125
 
 position of ions in fractional coordinates (direct lattice) 
   0.00000000  0.00004809  0.99917705
   0.33351333  0.99981803  0.99999874
   0.66648667  0.99981804  0.99999872
   1.00000000  0.33333235  0.00000009
   0.33328301  0.33333226  0.00082552
   0.66671698  0.33333227  0.00082549
   1.00000000  0.66661395  0.99917460
   0.33351211  0.66684345  0.99999952
   0.66648789  0.66684345  0.99999950
   0.16666391  0.16666819  0.50000137
   0.50000000  0.16638872  0.50253687
   0.83333609  0.16666820  0.50000135
   0.16666323  0.49999980  0.50000071
   0.50000000  0.50028860  0.50253702
   0.83333677  0.49999980  0.50000069
   0.16694841  0.83333428  0.49746021
   0.50000000  0.83333972  0.50000049
   0.83305158  0.83333428  0.49746018
   0.00000001  0.16651362  0.24978712
   0.33368805  0.16646170  0.25066343
   0.66631195  0.16646170  0.25066341
   0.00000000  0.50014788  0.24978637
   0.33368844  0.50020286  0.25066428
   0.66631156  0.50020286  0.25066426
   0.00000000  0.83333222  0.24863470
   0.33357346  0.83333367  0.25066594
   0.66642653  0.83333367  0.25066590
   0.16686804  0.99964248  0.74933557
   0.50000000  0.99976136  0.74933285
   0.83313197  0.99964249  0.74933555
   0.16681692  0.33333343  0.75021400
   0.49999999  0.33333699  0.75136586
   0.83318309  0.33333344  0.75021397
   0.16686940  0.66702191  0.74933503
   0.50000000  0.66690738  0.74933447
   0.83313060  0.66702191  0.74933501
   0.00000001  0.00044352  0.20544805
   0.33272064  0.00031152  0.20640620
   0.66727936  0.00031153  0.20640615
   1.00000000  0.33333002  0.20647979
   0.33355190  0.33333089  0.20739610
   0.66644810  0.33333089  0.20739608
   0.00000002  0.66621987  0.20544686
   0.33271629  0.66635333  0.20640764
   0.66728370  0.66635334  0.20640759
   0.16666011  0.16674356  0.70685458
   0.49999999  0.16775594  0.71047583
   0.83333990  0.16674356  0.70685456
   0.16665540  0.49992402  0.70685639
   0.49999999  0.49891909  0.71047463
   0.83334460  0.49992402  0.70685638
   0.16727282  0.83333218  0.70576453
   0.50000001  0.83333448  0.71080489
   0.83272717  0.83333218  0.70576451
   1.00000000  0.16735496  0.45602801
   0.33282052  0.16772038  0.45692496
   0.66717948  0.16772039  0.45692493
   1.00000000  0.49933305  0.45602740
   0.33282080  0.49896633  0.45692435
   0.66717920  0.49896633  0.45692432
   0.99999999  0.83332130  0.45400934
   0.32902510  0.83334141  0.45307387
   0.67097491  0.83334141  0.45307383
   0.16647617  0.00044797  0.95616929
   0.50000000  0.00068342  0.95800619
   0.83352383  0.00044796  0.95616926
   0.16647756  0.33332531  0.95713751
   0.50000000  0.33332643  0.95866255
   0.83352243  0.33332531  0.95713747
   0.16647502  0.66621228  0.95616490
   0.50000000  0.66597487  0.95800939
   0.83352498  0.66621229  0.95616487
   0.16560620  0.00050993  0.54307486
   0.50000001  0.00431348  0.54692590
   0.83439379  0.00050993  0.54307481
   0.16599506  0.33333424  0.54397693
   0.50000000  0.33333722  0.54598980
   0.83400493  0.33333424  0.54397689
   0.16561692  0.66615780  0.54307512
   0.50000001  0.66236326  0.54692541
   0.83438307  0.66615780  0.54307507
   0.99999999  0.16685498  0.04286280
   0.33287179  0.16685698  0.04383092
   0.66712822  0.16685699  0.04383088
   0.99999999  0.49980913  0.04286098
   0.33286830  0.49980754  0.04383086
   0.66713171  0.49980754  0.04383082
   0.00000000  0.83332959  0.04134130
   0.33263995  0.83332986  0.04199299
   0.66736004  0.83332987  0.04199294
   0.16659069  0.16668688  0.29314675
   0.50000000  0.16607096  0.29423231
   0.83340931  0.16668687  0.29314673
   0.16659063  0.49997651  0.29314594
   0.50000000  0.50059048  0.29423037
   0.83340937  0.49997652  0.29314592
   0.16558097  0.83333993  0.28952332
   0.50000000  0.83332604  0.28919344
   0.83441903  0.83333993  0.28952324
   1.00000000  0.99977760  0.79260609
   0.33301827  0.00060264  0.79359204
   0.66698174  0.00060266  0.79359201
   1.00000000  0.33332412  0.79351701
   0.33288824  0.33333318  0.79455655
   0.66711176  0.33333319  0.79455651
   0.00000000  0.66690035  0.79260324
   0.33301956  0.66606068  0.79359524
   0.66698044  0.66606066  0.79359520
 
 position of ions in cartesian coordinates  (Angst):
   0.00000002  0.00054865  9.73973029
   3.80476300 11.40605285  9.74773995
   7.60336575 11.40605290  9.74773969
  11.40812869  3.80269833  0.00000087
   3.80213549  3.80269733  0.00804694
   7.60599318  3.80269740  0.00804666
  11.40812870  7.60481779  9.73970640
   3.80474911  7.60743592  9.74774756
   7.60337961  7.60743591  9.74774731
   1.90132339  1.90137219  4.87388943
   5.70406437  1.89818397  4.89860492
   9.50680536  1.90137223  4.87388923
   1.90131554  5.70406206  4.87388301
   5.70406439  5.70735679  4.89860635
   9.50681317  5.70406205  4.87388282
   1.90456898  9.50678480  4.84911881
   5.70406441  9.50684681  4.87388088
   9.50355972  9.50678479  4.84911860
   0.00000006  1.89960877  2.43486294
   3.80675619  1.89901646  2.44340499
   7.60137252  1.89901653  2.44340479
   0.00000000  5.70575141  2.43485564
   3.80676064  5.70637866  2.44341333
   7.60136804  5.70637868  2.44341312
   0.00000004  9.50676125  2.42362948
   3.80544901  9.50677784  2.44342945
   7.60267968  9.50677783  2.44342909
   1.90365204 11.40405014  7.30433744
   5.70406433 11.40540635  7.30431090
   9.50447678 11.40405018  7.30433721
   1.90306889  3.80271073  7.31290011
   5.70406427  3.80275127  7.32412826
   9.50505990  3.80271079  7.31289991
   1.90366763  7.60947185  7.30433216
   5.70406435  7.60816523  7.30432668
   9.50446115  7.60947186  7.30433196
   0.00000016  0.00505969  2.00265669
   3.79571984  0.00355387  2.01199650
   7.61240882  0.00355394  2.01199604
  11.40812873  3.80267181  2.01271385
   3.80520296  3.80268165  2.02164574
   7.60292577  3.80268167  2.02164555
   0.00000019  7.60032201  2.00264508
   3.79567031  7.60184462  2.01201052
   7.61245832  7.60184464  2.01201007
   1.90127998  1.90223199  6.89024330
   5.70406423  1.91378140  6.92554231
   9.50684891  1.90223203  6.89024312
   1.90122631  5.70319757  6.89026097
   5.70406422  5.69173324  6.92553064
   9.50690253  5.70319757  6.89026079
   1.90826992  9.50676080  6.87961771
   5.70406444  9.50678707  6.92874993
   9.49985878  9.50676084  6.87961757
  11.40812873  1.90920687  4.44524803
   3.79685933  1.91337567  4.45399130
   7.61126945  1.91337577  4.45399099
  11.40812874  5.69645566  4.44524211
   3.79686258  5.69227216  4.45398532
   7.61126615  5.69227210  4.45398500
  11.40812866  9.50663670  4.42557051
   3.75356065  9.50686603  4.41645183
   7.65456814  9.50686610  4.41645138
   1.89918162  0.00511047  9.32050132
   5.70406440  0.00779653  9.33840698
   9.50894711  0.00511041  9.32050103
   1.89919745  3.80261808  9.32993927
   5.70406437  3.80263080  9.34480501
   9.50893124  3.80261810  9.32993890
   1.89916843  7.60023549  9.32045848
   5.70406436  7.59752711  9.33843815
   9.50896032  7.60023557  9.32045817
   1.88925686  0.00581732  5.29375911
   5.70406453  0.04920870  5.33129817
   9.51887179  0.00581738  5.29375864
   1.89369306  3.80271996  5.30255235
   5.70406442  3.80275390  5.32217325
   9.51443565  3.80271995  5.30255194
   1.88937912  7.59961396  5.29376167
   5.70406453  7.55632534  5.33129336
   9.51874949  7.59961395  5.29376120
  11.40812863  1.90350304  0.41781592
   3.79744419  1.90352592  0.42725290
   7.61068461  1.90352598  0.42725256
  11.40812862  5.70188685  0.41779824
   3.79740437  5.70186877  0.42725232
   7.61072443  5.70186873  0.42725195
   0.00000003  9.50673129  0.40298478
   3.79479938  9.50673435  0.40933728
   7.61332928  9.50673439  0.40933675
   1.90048807  1.90158541  2.85752191
   5.70406439  1.89455893  2.86810363
   9.50764068  1.90158529  2.85752170
   1.90048733  5.70379637  2.85751402
   5.70406435  5.71080060  2.86808472
   9.50764141  5.70379655  2.85751380
   1.88896906  9.50684922  2.82220155
   5.70406437  9.50669080  2.81898601
   9.51915967  9.50684922  2.82220081
  11.40812873 11.40559155  7.72612778
   3.79911525  0.00687497  7.73573858
   7.60901354  0.00687520  7.73573822
  11.40812874  3.80260447  7.73500718
   3.79763187  3.80270787  7.74514038
   7.61049684  3.80270789  7.74513996
   0.00000000  7.60808510  7.72610001
   3.79913002  7.59850600  7.73576970
   7.60899872  7.59850579  7.73576933
 


--------------------------------------------------------------------------------------------------------


 k-point  1 :   0.0000 0.0000 0.0000  plane waves:   23091
 k-point  2 :   0.5000 0.0000 0.0000  plane waves:   23010
 k-point  3 :   0.0000 0.5000 0.0000  plane waves:   23010
 k-point  4 :   0.5000 0.5000 0.0000  plane waves:   22996
 k-point  5 :   0.0000 0.0000 0.5000  plane waves:   23024
 k-point  6 :   0.5000 0.0000 0.5000  plane waves:   23052
 k-point  7 :   0.0000 0.5000 0.5000  plane waves:   23052
 k-point  8 :   0.5000 0.5000 0.5000  plane waves:   23032

 maximum and minimum number of plane-waves per node :      1074     1020

 maximum number of plane-waves:     23091
 maximum index in each direction: 
   IXMAX=   18   IYMAX=   18   IZMAX=   15
   IXMIN=  -19   IYMIN=  -19   IZMIN=  -16


 parallel 3D FFT for wavefunctions:
    minimum data exchange during FFTs selected (reduces bandwidth)
 parallel 3D FFT for charge:
    minimum data exchange during FFTs selected (reduces bandwidth)


 total amount of memory used by VASP MPI-rank0   121301. kBytes
=======================================================================

   base      :      30000. kBytes
   nonl-proj :       4314. kBytes
   fftplans  :       3336. kBytes
   grid      :       8284. kBytes
   one-center:        155. kBytes
   wavefun   :      75212. kBytes
 
     INWAV:  cpu time   12.7620: real time   12.7649
 Broyden mixing: mesh for mixing (old mesh)
   NGX = 37   NGY = 37   NGZ = 31
  (NGX  =160   NGY  =160   NGZ  =128)
  gives a total of  42439 points

 charge density for first step will be calculated from the start-wavefunctions


--------------------------------------------------------------------------------------------------------


 Maximum index for augmentation-charges          626 (set IRDMAX)


--------------------------------------------------------------------------------------------------------


 initial charge from wavefunction
 First call to EWALD:  gamma=   0.164
 Maximum number of real-space cells 3x 3x 3
 Maximum number of reciprocal cells 3x 3x 3

    FEWALD:  cpu time    0.0035: real time    0.0035


--------------------------------------- Iteration      1(   1)  ---------------------------------------


    POTLOK:  cpu time    0.1643: real time    0.1647
    SETDIJ:  cpu time    0.0233: real time    0.0235
atom =   1  type =  1  l = 2
 
 onsite density matrix
 
spin component  1
 
  0.1061  0.0000  0.0000 -0.0004  0.0000
  0.0000  0.0990  0.0001  0.0000 -0.0003
  0.0000  0.0001  0.2430 -0.0000 -0.0009
 -0.0004  0.0000 -0.0000  0.1006  0.0000
  0.0000 -0.0003 -0.0009  0.0000  0.2507
 
spin component  2
 
  0.1061 -0.0000  0.0000 -0.0004  0.0000
 -0.0000  0.0990  0.0001 -0.0000 -0.0003
  0.0000  0.0001  0.2430 -0.0000 -0.0009
 -0.0004 -0.0000 -0.0000  0.1006  0.0000
  0.0000 -0.0003 -0.0009  0.0000  0.2507
 
 occupancies and eigenvectors
 
  o =  0.0990  v =  0.0000  0.0000  0.0000  0.0000  0.0000  0.0000  1.0000 -0.0004  0.0000  0.0022      0.0000  0.0000  0.0000  0.0000  0.0000  0.0000  0.0000  0.0000  0.0000  0.0000
  o =  0.0990  v =  0.0000 -1.0000  0.0004  0.0000 -0.0022  0.0000  0.0000  0.0000  0.0000  0.0000      0.0000  0.0000  0.0000  0.0000  0.0000  0.0000  0.0000  0.0000  0.0000  0.0000
  o =  0.1006  v =  0.0000  0.0000  0.0000  0.0000  0.0000  0.0661 -0.0000  0.0000  0.9978 -0.0000      0.0000  0.0000  0.0000  0.0000  0.0000  0.0000  0.0000  0.0000  0.0000  0.0000
  o =  0.1006  v = -0.0654 -0.0000 -0.0000 -0.9979  0.0000  0.0000  0.0000  0.0000  0.0000  0.0000      0.0000  0.0000  0.0000  0.0000  0.0000  0.0000  0.0000  0.0000  0.0000  0.0000
  o =  0.1061  v =  0.0000  0.0000  0.0000  0.0000  0.0000 -0.9978  0.0000  0.0000  0.0661  0.0000      0.0000  0.0000  0.0000  0.0000  0.0000  0.0000  0.0000  0.0000  0.0000  0.0000
  o =  0.1061  v = -0.9979 -0.0000  0.0000  0.0654  0.0000  0.0000  0.0000  0.0000  0.0000  0.0000      0.0000  0.0000  0.0000  0.0000  0.0000  0.0000  0.0000  0.0000  0.0000  0.0000
  o =  0.2429  v =  0.0000  0.0001  0.9935 -0.0000  0.1138  0.0000  0.0000  0.0000  0.0000  0.0000      0.0000  0.0000  0.0000  0.0000  0.0000  0.0000  0.0000  0.0000  0.0000  0.0000
  o =  0.2429  v =  0.0000  0.0000  0.0000  0.0000  0.0000  0.0000  0.0001  0.9935 -0.0000  0.1141      0.0000  0.0000  0.0000  0.0000  0.0000  0.0000  0.0000  0.0000  0.0000  0.0000
  o =  0.2508  v =  0.0000  0.0000  0.0000  0.0000  0.0000 -0.0000  0.0022  0.1141 -0.0000 -0.9935      0.0000  0.0000  0.0000  0.0000  0.0000  0.0000  0.0000  0.0000  0.0000  0.0000
  o =  0.2508  v = -0.0000  0.0022  0.1138 -0.0000 -0.9935  0.0000  0.0000  0.0000  0.0000  0.0000      0.0000  0.0000  0.0000  0.0000  0.0000  0.0000  0.0000  0.0000  0.0000  0.0000
atom =   2  type =  1  l = 2
 
 onsite density matrix
 
spin component  1
 
  0.1058 -0.0007 -0.0002 -0.0007  0.0000
 -0.0007  0.0996 -0.0001  0.0000 -0.0000
 -0.0002 -0.0001  0.2431 -0.0001 -0.0000
 -0.0007  0.0000 -0.0001  0.0996  0.0000
  0.0000 -0.0000 -0.0000  0.0000  0.2497
 
spin component  2
 
  0.1058 -0.0007 -0.0002 -0.0007  0.0000
 -0.0007  0.0996 -0.0001  0.0000 -0.0000
 -0.0002 -0.0001  0.2431 -0.0001 -0.0000
 -0.0007  0.0000 -0.0001  0.0996  0.0000
  0.0000 -0.0000 -0.0000  0.0000  0.2496
 
 occupancies and eigenvectors
 
  o =  0.0995  v = -0.1473 -0.6938 -0.0014 -0.7050  0.0000  0.0000  0.0000  0.0000  0.0000  0.0000      0.0000  0.0000  0.0000  0.0000  0.0000  0.0000  0.0000  0.0000  0.0000  0.0000
  o =  0.0995  v =  0.0000  0.0000  0.0000  0.0000  0.0000 -0.1479 -0.6928 -0.0013 -0.7058  0.0000      0.0000  0.0000  0.0000  0.0000  0.0000  0.0000  0.0000  0.0000  0.0000  0.0000
  o =  0.0996  v =  0.0000  0.0000  0.0000  0.0000  0.0000 -0.0016 -0.7135  0.0000  0.7007 -0.0004      0.0000  0.0000  0.0000  0.0000  0.0000  0.0000  0.0000  0.0000  0.0000  0.0000
  o =  0.0996  v = -0.0014 -0.7126  0.0000  0.7016 -0.0003  0.0000  0.0000  0.0000  0.0000  0.0000      0.0000  0.0000  0.0000  0.0000  0.0000  0.0000  0.0000  0.0000  0.0000  0.0000
  o =  0.1060  v =  0.0000  0.0000  0.0000  0.0000  0.0000  0.9890 -0.1048  0.0011 -0.1044 -0.0000      0.0000  0.0000  0.0000  0.0000  0.0000  0.0000  0.0000  0.0000  0.0000  0.0000
  o =  0.1060  v =  0.9891 -0.1043  0.0011 -0.1040 -0.0000  0.0000  0.0000  0.0000  0.0000  0.0000      0.0000  0.0000  0.0000  0.0000  0.0000  0.0000  0.0000  0.0000  0.0000  0.0000
  o =  0.2431  v =  0.0000  0.0000  0.0000  0.0000  0.0000 -0.0013 -0.0008  1.0000 -0.0008  0.0004      0.0000  0.0000  0.0000  0.0000  0.0000  0.0000  0.0000  0.0000  0.0000  0.0000
  o =  0.2431  v = -0.0013 -0.0008  1.0000 -0.0009  0.0004  0.0000  0.0000  0.0000  0.0000  0.0000      0.0000  0.0000  0.0000  0.0000  0.0000  0.0000  0.0000  0.0000  0.0000  0.0000
  o =  0.2496  v =  0.0000  0.0000  0.0000  0.0000  0.0000  0.0000 -0.0003 -0.0004  0.0003  1.0000      0.0000  0.0000  0.0000  0.0000  0.0000  0.0000  0.0000  0.0000  0.0000  0.0000
  o =  0.2497  v =  0.0000 -0.0002 -0.0004  0.0002  1.0000  0.0000  0.0000  0.0000  0.0000  0.0000      0.0000  0.0000  0.0000  0.0000  0.0000  0.0000  0.0000  0.0000  0.0000  0.0000
atom =   3  type =  1  l = 2
 
 onsite density matrix
 
spin component  1
 
  0.1058  0.0007  0.0002 -0.0007 -0.0000
  0.0007  0.0996 -0.0001 -0.0000 -0.0000
  0.0002 -0.0001  0.2431  0.0001 -0.0000
 -0.0007 -0.0000  0.0001  0.0996 -0.0000
 -0.0000 -0.0000 -0.0000 -0.0000  0.2497
 
spin component  2
 
  0.1058  0.0007  0.0002 -0.0007 -0.0000
  0.0007  0.0996 -0.0001 -0.0000 -0.0000
  0.0002 -0.0001  0.2431  0.0001 -0.0000
 -0.0007 -0.0000  0.0001  0.0996 -0.0000
 -0.0000 -0.0000 -0.0000 -0.0000  0.2496
 
 occupancies and eigenvectors
 
  o =  0.0995  v = -0.1473  0.6938  0.0014 -0.7050 -0.0000  0.0000  0.0000  0.0000  0.0000  0.0000      0.0000  0.0000  0.0000  0.0000  0.0000  0.0000  0.0000  0.0000  0.0000  0.0000
  o =  0.0995  v =  0.0000  0.0000  0.0000  0.0000  0.0000 -0.1479  0.6928  0.0013 -0.7058 -0.0000      0.0000  0.0000  0.0000  0.0000  0.0000  0.0000  0.0000  0.0000  0.0000  0.0000
  o =  0.0996  v =  0.0000  0.0000  0.0000  0.0000  0.0000  0.0016 -0.7135  0.0000 -0.7007 -0.0004      0.0000  0.0000  0.0000  0.0000  0.0000  0.0000  0.0000  0.0000  0.0000  0.0000
  o =  0.0996  v =  0.0014 -0.7126  0.0000 -0.7016 -0.0003  0.0000  0.0000  0.0000  0.0000  0.0000      0.0000  0.0000  0.0000  0.0000  0.0000  0.0000  0.0000  0.0000  0.0000  0.0000
  o =  0.1060  v =  0.0000  0.0000  0.0000  0.0000  0.0000  0.9890  0.1048 -0.0011 -0.1044  0.0000      0.0000  0.0000  0.0000  0.0000  0.0000  0.0000  0.0000  0.0000  0.0000  0.0000
  o =  0.1060  v =  0.9891  0.1043 -0.0011 -0.1040  0.0000  0.0000  0.0000  0.0000  0.0000  0.0000      0.0000  0.0000  0.0000  0.0000  0.0000  0.0000  0.0000  0.0000  0.0000  0.0000
  o =  0.2431  v =  0.0000  0.0000  0.0000  0.0000  0.0000 -0.0013  0.0008 -1.0000 -0.0008 -0.0004      0.0000  0.0000  0.0000  0.0000  0.0000  0.0000  0.0000  0.0000  0.0000  0.0000
  o =  0.2431  v = -0.0013  0.0008 -1.0000 -0.0009 -0.0004  0.0000  0.0000  0.0000  0.0000  0.0000      0.0000  0.0000  0.0000  0.0000  0.0000  0.0000  0.0000  0.0000  0.0000  0.0000
  o =  0.2496  v =  0.0000  0.0000  0.0000  0.0000  0.0000  0.0000  0.0003  0.0004  0.0003 -1.0000      0.0000  0.0000  0.0000  0.0000  0.0000  0.0000  0.0000  0.0000  0.0000  0.0000
  o =  0.2497  v =  0.0000  0.0002  0.0004  0.0002 -1.0000  0.0000  0.0000  0.0000  0.0000  0.0000      0.0000  0.0000  0.0000  0.0000  0.0000  0.0000  0.0000  0.0000  0.0000  0.0000
atom =   4  type =  1  l = 2
 
 onsite density matrix
 
spin component  1
 
  0.1065 -0.0000 -0.0000  0.0000  0.0000
 -0.0000  0.0997  0.0000 -0.0000  0.0000
 -0.0000  0.0000  0.2425 -0.0000  0.0000
  0.0000 -0.0000 -0.0000  0.0997  0.0000
  0.0000  0.0000  0.0000  0.0000  0.2519
 
spin component  2
 
  0.1065 -0.0000  0.0000  0.0000 -0.0000
 -0.0000  0.0997  0.0000  0.0000  0.0000
  0.0000  0.0000  0.2425 -0.0000  0.0000
  0.0000  0.0000 -0.0000  0.0997  0.0000
 -0.0000  0.0000  0.0000  0.0000  0.2519
 
 occupancies and eigenvectors
 
  o =  0.0997  v =  0.0000  0.0000  0.0000  0.0000  0.0000 -0.0000 -1.0000  0.0000  0.0000  0.0000      0.0000  0.0000  0.0000  0.0000  0.0000  0.0000  0.0000  0.0000  0.0000  0.0000
  o =  0.0997  v =  0.0000  1.0000 -0.0000  0.0002 -0.0000  0.0000  0.0000  0.0000  0.0000  0.0000      0.0000  0.0000  0.0000  0.0000  0.0000  0.0000  0.0000  0.0000  0.0000  0.0000
  o =  0.0997  v =  0.0000  0.0000  0.0000  0.0000  0.0000  0.0003 -0.0000 -0.0000 -1.0000  0.0000      0.0000  0.0000  0.0000  0.0000  0.0000  0.0000  0.0000  0.0000  0.0000  0.0000
  o =  0.0997  v = -0.0003 -0.0002  0.0000  1.0000 -0.0000  0.0000  0.0000  0.0000  0.0000  0.0000      0.0000  0.0000  0.0000  0.0000  0.0000  0.0000  0.0000  0.0000  0.0000  0.0000
  o =  0.1065  v =  0.0000  0.0000  0.0000  0.0000  0.0000 -1.0000  0.0000  0.0000 -0.0003 -0.0000      0.0000  0.0000  0.0000  0.0000  0.0000  0.0000  0.0000  0.0000  0.0000  0.0000
  o =  0.1065  v = -1.0000  0.0000 -0.0000 -0.0003  0.0000  0.0000  0.0000  0.0000  0.0000  0.0000      0.0000  0.0000  0.0000  0.0000  0.0000  0.0000  0.0000  0.0000  0.0000  0.0000
  o =  0.2425  v =  0.0000  0.0000  0.0000  0.0000  0.0000 -0.0000 -0.0000 -1.0000  0.0000  0.0000      0.0000  0.0000  0.0000  0.0000  0.0000  0.0000  0.0000  0.0000  0.0000  0.0000
  o =  0.2425  v =  0.0000 -0.0000 -1.0000  0.0000  0.0000  0.0000  0.0000  0.0000  0.0000  0.0000      0.0000  0.0000  0.0000  0.0000  0.0000  0.0000  0.0000  0.0000  0.0000  0.0000
  o =  0.2519  v =  0.0000  0.0000  0.0000  0.0000  0.0000  0.0000 -0.0000 -0.0000 -0.0000 -1.0000      0.0000  0.0000  0.0000  0.0000  0.0000  0.0000  0.0000  0.0000  0.0000  0.0000
  o =  0.2519  v =  0.0000  0.0000  0.0000  0.0000  1.0000  0.0000  0.0000  0.0000  0.0000  0.0000      0.0000  0.0000  0.0000  0.0000  0.0000  0.0000  0.0000  0.0000  0.0000  0.0000
atom =   5  type =  1  l = 2
 
 onsite density matrix
 
spin component  1
 
  0.1061 -0.0004  0.0000  0.0000  0.0000
 -0.0004  0.1006  0.0000 -0.0000  0.0000
  0.0000  0.0000  0.2430  0.0001  0.0009
  0.0000 -0.0000  0.0001  0.0990  0.0003
  0.0000  0.0000  0.0009  0.0003  0.2507
 
spin component  2
 
  0.1061 -0.0004  0.0000  0.0000  0.0000
 -0.0004  0.1006  0.0000 -0.0000  0.0000
  0.0000  0.0000  0.2430  0.0001  0.0009
  0.0000 -0.0000  0.0001  0.0990  0.0003
  0.0000  0.0000  0.0009  0.0003  0.2507
 
 occupancies and eigenvectors
 
  o =  0.0990  v =  0.0000  0.0000  0.0000  0.0000  0.0000  0.0003 -0.0000  0.0003 -1.0000  0.0022      0.0000  0.0000  0.0000  0.0000  0.0000  0.0000  0.0000  0.0000  0.0000  0.0000
  o =  0.0990  v =  0.0003 -0.0000  0.0003 -1.0000  0.0022  0.0000  0.0000  0.0000  0.0000  0.0000      0.0000  0.0000  0.0000  0.0000  0.0000  0.0000  0.0000  0.0000  0.0000  0.0000
  o =  0.1006  v =  0.0000  0.0000  0.0000  0.0000  0.0000 -0.0668 -0.9978  0.0000  0.0000  0.0000      0.0000  0.0000  0.0000  0.0000  0.0000  0.0000  0.0000  0.0000  0.0000  0.0000
  o =  0.1006  v = -0.0661 -0.9978  0.0000  0.0000  0.0000  0.0000  0.0000  0.0000  0.0000  0.0000      0.0000  0.0000  0.0000  0.0000  0.0000  0.0000  0.0000  0.0000  0.0000  0.0000
  o =  0.1061  v =  0.0000  0.0000  0.0000  0.0000  0.0000  0.9978 -0.0668 -0.0000  0.0003 -0.0000      0.0000  0.0000  0.0000  0.0000  0.0000  0.0000  0.0000  0.0000  0.0000  0.0000
  o =  0.1061  v =  0.9978 -0.0661 -0.0000  0.0003 -0.0000  0.0000  0.0000  0.0000  0.0000  0.0000      0.0000  0.0000  0.0000  0.0000  0.0000  0.0000  0.0000  0.0000  0.0000  0.0000
  o =  0.2429  v =  0.0000 -0.0000  0.9935  0.0001 -0.1140  0.0000  0.0000  0.0000  0.0000  0.0000      0.0000  0.0000  0.0000  0.0000  0.0000  0.0000  0.0000  0.0000  0.0000  0.0000
  o =  0.2429  v =  0.0000  0.0000  0.0000  0.0000  0.0000  0.0000 -0.0000  0.9934  0.0001 -0.1143      0.0000  0.0000  0.0000  0.0000  0.0000  0.0000  0.0000  0.0000  0.0000  0.0000
  o =  0.2508  v =  0.0000  0.0000  0.0000  0.0000  0.0000 -0.0000 -0.0000 -0.1143 -0.0022 -0.9934      0.0000  0.0000  0.0000  0.0000  0.0000  0.0000  0.0000  0.0000  0.0000  0.0000
  o =  0.2508  v = -0.0000 -0.0000 -0.1140 -0.0022 -0.9935  0.0000  0.0000  0.0000  0.0000  0.0000      0.0000  0.0000  0.0000  0.0000  0.0000  0.0000  0.0000  0.0000  0.0000  0.0000
atom =   6  type =  1  l = 2
 
 onsite density matrix
 
spin component  1
 
  0.1061  0.0004 -0.0000  0.0000 -0.0000
  0.0004  0.1006  0.0000  0.0000  0.0000
 -0.0000  0.0000  0.2430 -0.0001  0.0009
  0.0000  0.0000 -0.0001  0.0990 -0.0003
 -0.0000  0.0000  0.0009 -0.0003  0.2507
 
spin component  2
 
  0.1061  0.0004 -0.0000  0.0000 -0.0000
  0.0004  0.1006  0.0000  0.0000  0.0000
 -0.0000  0.0000  0.2430 -0.0001  0.0009
  0.0000  0.0000 -0.0001  0.0990 -0.0003
 -0.0000  0.0000  0.0009 -0.0003  0.2507
 
 occupancies and eigenvectors
 
  o =  0.0990  v =  0.0000  0.0000  0.0000  0.0000  0.0000  0.0003  0.0000 -0.0003 -1.0000 -0.0022      0.0000  0.0000  0.0000  0.0000  0.0000  0.0000  0.0000  0.0000  0.0000  0.0000
  o =  0.0990  v =  0.0003  0.0000 -0.0003 -1.0000 -0.0022  0.0000  0.0000  0.0000  0.0000  0.0000      0.0000  0.0000  0.0000  0.0000  0.0000  0.0000  0.0000  0.0000  0.0000  0.0000
  o =  0.1006  v =  0.0000  0.0000  0.0000  0.0000  0.0000  0.0668 -0.9978  0.0000 -0.0000  0.0000      0.0000  0.0000  0.0000  0.0000  0.0000  0.0000  0.0000  0.0000  0.0000  0.0000
  o =  0.1006  v =  0.0661 -0.9978  0.0000 -0.0000  0.0000  0.0000  0.0000  0.0000  0.0000  0.0000      0.0000  0.0000  0.0000  0.0000  0.0000  0.0000  0.0000  0.0000  0.0000  0.0000
  o =  0.1061  v =  0.0000  0.0000  0.0000  0.0000  0.0000  0.9978  0.0668  0.0000  0.0003  0.0000      0.0000  0.0000  0.0000  0.0000  0.0000  0.0000  0.0000  0.0000  0.0000  0.0000
  o =  0.1061  v =  0.9978  0.0661  0.0000  0.0003  0.0000  0.0000  0.0000  0.0000  0.0000  0.0000      0.0000  0.0000  0.0000  0.0000  0.0000  0.0000  0.0000  0.0000  0.0000  0.0000
  o =  0.2429  v = -0.0000 -0.0000  0.9935 -0.0001 -0.1140  0.0000  0.0000  0.0000  0.0000  0.0000      0.0000  0.0000  0.0000  0.0000  0.0000  0.0000  0.0000  0.0000  0.0000  0.0000
  o =  0.2429  v =  0.0000  0.0000  0.0000  0.0000  0.0000 -0.0000 -0.0000  0.9934 -0.0001 -0.1143      0.0000  0.0000  0.0000  0.0000  0.0000  0.0000  0.0000  0.0000  0.0000  0.0000
  o =  0.2508  v =  0.0000  0.0000  0.0000  0.0000  0.0000  0.0000 -0.0000 -0.1143  0.0022 -0.9934      0.0000  0.0000  0.0000  0.0000  0.0000  0.0000  0.0000  0.0000  0.0000  0.0000
  o =  0.2508  v =  0.0000 -0.0000 -0.1140  0.0022 -0.9935  0.0000  0.0000  0.0000  0.0000  0.0000      0.0000  0.0000  0.0000  0.0000  0.0000  0.0000  0.0000  0.0000  0.0000  0.0000
atom =   7  type =  1  l = 2
 
 onsite density matrix
 
spin component  1
 
  0.1061  0.0000 -0.0000  0.0004 -0.0000
  0.0000  0.0990 -0.0001  0.0000  0.0003
 -0.0000 -0.0001  0.2430 -0.0000 -0.0009
  0.0004  0.0000 -0.0000  0.1006  0.0000
 -0.0000  0.0003 -0.0009  0.0000  0.2507
 
spin component  2
 
  0.1061  0.0000 -0.0000  0.0004 -0.0000
  0.0000  0.0990 -0.0001 -0.0000  0.0003
 -0.0000 -0.0001  0.2430 -0.0000 -0.0009
  0.0004 -0.0000 -0.0000  0.1006  0.0000
 -0.0000  0.0003 -0.0009  0.0000  0.2507
 
 occupancies and eigenvectors
 
  o =  0.0990  v =  0.0000  0.0000  0.0000  0.0000  0.0000 -0.0000  1.0000  0.0004  0.0000 -0.0022      0.0000  0.0000  0.0000  0.0000  0.0000  0.0000  0.0000  0.0000  0.0000  0.0000
  o =  0.0990  v = -0.0000  1.0000  0.0004  0.0000 -0.0022  0.0000  0.0000  0.0000  0.0000  0.0000      0.0000  0.0000  0.0000  0.0000  0.0000  0.0000  0.0000  0.0000  0.0000  0.0000
  o =  0.1006  v =  0.0000  0.0000  0.0000  0.0000  0.0000  0.0663  0.0000 -0.0000 -0.9978  0.0000      0.0000  0.0000  0.0000  0.0000  0.0000  0.0000  0.0000  0.0000  0.0000  0.0000
  o =  0.1006  v =  0.0655  0.0000 -0.0000 -0.9978  0.0000  0.0000  0.0000  0.0000  0.0000  0.0000      0.0000  0.0000  0.0000  0.0000  0.0000  0.0000  0.0000  0.0000  0.0000  0.0000
  o =  0.1061  v =  0.0000  0.0000  0.0000  0.0000  0.0000  0.9978  0.0000  0.0000  0.0663  0.0000      0.0000  0.0000  0.0000  0.0000  0.0000  0.0000  0.0000  0.0000  0.0000  0.0000
  o =  0.1061  v =  0.9978  0.0000  0.0000  0.0655  0.0000  0.0000  0.0000  0.0000  0.0000  0.0000      0.0000  0.0000  0.0000  0.0000  0.0000  0.0000  0.0000  0.0000  0.0000  0.0000
  o =  0.2429  v = -0.0000 -0.0001  0.9935 -0.0000  0.1137  0.0000  0.0000  0.0000  0.0000  0.0000      0.0000  0.0000  0.0000  0.0000  0.0000  0.0000  0.0000  0.0000  0.0000  0.0000
  o =  0.2429  v =  0.0000  0.0000  0.0000  0.0000  0.0000 -0.0000 -0.0001  0.9935 -0.0000  0.1140      0.0000  0.0000  0.0000  0.0000  0.0000  0.0000  0.0000  0.0000  0.0000  0.0000
  o =  0.2508  v =  0.0000  0.0000  0.0000  0.0000  0.0000  0.0000 -0.0022  0.1140 -0.0000 -0.9935      0.0000  0.0000  0.0000  0.0000  0.0000  0.0000  0.0000  0.0000  0.0000  0.0000
  o =  0.2508  v =  0.0000 -0.0022  0.1137 -0.0000 -0.9935  0.0000  0.0000  0.0000  0.0000  0.0000      0.0000  0.0000  0.0000  0.0000  0.0000  0.0000  0.0000  0.0000  0.0000  0.0000
atom =   8  type =  1  l = 2
 
 onsite density matrix
 
spin component  1
 
  0.1058 -0.0007  0.0002  0.0007 -0.0000
 -0.0007  0.0996  0.0001 -0.0000  0.0000
  0.0002  0.0001  0.2431 -0.0001  0.0000
  0.0007 -0.0000 -0.0001  0.0996  0.0000
 -0.0000  0.0000  0.0000  0.0000  0.2497
 
spin component  2
 
  0.1058 -0.0007  0.0002  0.0007 -0.0000
 -0.0007  0.0996  0.0001 -0.0000  0.0000
  0.0002  0.0001  0.2431 -0.0001  0.0000
  0.0007 -0.0000 -0.0001  0.0996  0.0000
 -0.0000  0.0000  0.0000  0.0000  0.2496
 
 occupancies and eigenvectors
 
  o =  0.0995  v = -0.1473 -0.6833  0.0014  0.7151 -0.0000  0.0000  0.0000  0.0000  0.0000  0.0000      0.0000  0.0000  0.0000  0.0000  0.0000  0.0000  0.0000  0.0000  0.0000  0.0000
  o =  0.0995  v =  0.0000  0.0000  0.0000  0.0000  0.0000 -0.1480 -0.6805  0.0014  0.7176 -0.0000      0.0000  0.0000  0.0000  0.0000  0.0000  0.0000  0.0000  0.0000  0.0000  0.0000
  o =  0.0996  v =  0.0000  0.0000  0.0000  0.0000  0.0000  0.0041  0.7252 -0.0000  0.6886 -0.0004      0.0000  0.0000  0.0000  0.0000  0.0000  0.0000  0.0000  0.0000  0.0000  0.0000
  o =  0.0996  v =  0.0036  0.7226 -0.0000  0.6912 -0.0003  0.0000  0.0000  0.0000  0.0000  0.0000      0.0000  0.0000  0.0000  0.0000  0.0000  0.0000  0.0000  0.0000  0.0000  0.0000
  o =  0.1060  v =  0.0000  0.0000  0.0000  0.0000  0.0000  0.9890 -0.1049 -0.0011  0.1045  0.0000      0.0000  0.0000  0.0000  0.0000  0.0000  0.0000  0.0000  0.0000  0.0000  0.0000
  o =  0.1060  v =  0.9891 -0.1044 -0.0011  0.1040  0.0000  0.0000  0.0000  0.0000  0.0000  0.0000      0.0000  0.0000  0.0000  0.0000  0.0000  0.0000  0.0000  0.0000  0.0000  0.0000
  o =  0.2431  v =  0.0000  0.0000  0.0000  0.0000  0.0000 -0.0013 -0.0008 -1.0000  0.0009  0.0002      0.0000  0.0000  0.0000  0.0000  0.0000  0.0000  0.0000  0.0000  0.0000  0.0000
  o =  0.2431  v = -0.0013 -0.0009 -1.0000  0.0009  0.0002  0.0000  0.0000  0.0000  0.0000  0.0000      0.0000  0.0000  0.0000  0.0000  0.0000  0.0000  0.0000  0.0000  0.0000  0.0000
  o =  0.2496  v =  0.0000  0.0000  0.0000  0.0000  0.0000  0.0000 -0.0003 -0.0002 -0.0003 -1.0000      0.0000  0.0000  0.0000  0.0000  0.0000  0.0000  0.0000  0.0000  0.0000  0.0000
  o =  0.2497  v =  0.0000 -0.0002 -0.0002 -0.0002 -1.0000  0.0000  0.0000  0.0000  0.0000  0.0000      0.0000  0.0000  0.0000  0.0000  0.0000  0.0000  0.0000  0.0000  0.0000  0.0000
atom =   9  type =  1  l = 2
 
 onsite density matrix
 
spin component  1
 
  0.1058  0.0007 -0.0002  0.0007  0.0000
  0.0007  0.0996  0.0001  0.0000  0.0000
 -0.0002  0.0001  0.2431  0.0001  0.0000
  0.0007  0.0000  0.0001  0.0996 -0.0000
  0.0000  0.0000  0.0000 -0.0000  0.2497
 
spin component  2
 
  0.1058  0.0007 -0.0002  0.0007  0.0000
  0.0007  0.0996  0.0001  0.0000  0.0000
 -0.0002  0.0001  0.2431  0.0001  0.0000
  0.0007  0.0000  0.0001  0.0996 -0.0000
  0.0000  0.0000  0.0000 -0.0000  0.2496
 
 occupancies and eigenvectors
 
  o =  0.0995  v = -0.1473  0.6835 -0.0014  0.7149  0.0000  0.0000  0.0000  0.0000  0.0000  0.0000      0.0000  0.0000  0.0000  0.0000  0.0000  0.0000  0.0000  0.0000  0.0000  0.0000
  o =  0.0995  v =  0.0000  0.0000  0.0000  0.0000  0.0000 -0.1480  0.6808 -0.0014  0.7173  0.0000      0.0000  0.0000  0.0000  0.0000  0.0000  0.0000  0.0000  0.0000  0.0000  0.0000
  o =  0.0996  v =  0.0000  0.0000  0.0000  0.0000  0.0000 -0.0041  0.7249 -0.0000 -0.6889 -0.0004      0.0000  0.0000  0.0000  0.0000  0.0000  0.0000  0.0000  0.0000  0.0000  0.0000
  o =  0.0996  v = -0.0035  0.7224 -0.0000 -0.6914 -0.0003  0.0000  0.0000  0.0000  0.0000  0.0000      0.0000  0.0000  0.0000  0.0000  0.0000  0.0000  0.0000  0.0000  0.0000  0.0000
  o =  0.1060  v =  0.0000  0.0000  0.0000  0.0000  0.0000  0.9890  0.1049  0.0011  0.1045 -0.0000      0.0000  0.0000  0.0000  0.0000  0.0000  0.0000  0.0000  0.0000  0.0000  0.0000
  o =  0.1060  v =  0.9891  0.1044  0.0011  0.1040 -0.0000  0.0000  0.0000  0.0000  0.0000  0.0000      0.0000  0.0000  0.0000  0.0000  0.0000  0.0000  0.0000  0.0000  0.0000  0.0000
  o =  0.2431  v =  0.0000  0.0000  0.0000  0.0000  0.0000 -0.0013  0.0008  1.0000  0.0009 -0.0002      0.0000  0.0000  0.0000  0.0000  0.0000  0.0000  0.0000  0.0000  0.0000  0.0000
  o =  0.2431  v = -0.0013  0.0009  1.0000  0.0009 -0.0002  0.0000  0.0000  0.0000  0.0000  0.0000      0.0000  0.0000  0.0000  0.0000  0.0000  0.0000  0.0000  0.0000  0.0000  0.0000
  o =  0.2496  v =  0.0000  0.0000  0.0000  0.0000  0.0000  0.0000  0.0003  0.0002 -0.0003  1.0000      0.0000  0.0000  0.0000  0.0000  0.0000  0.0000  0.0000  0.0000  0.0000  0.0000
  o =  0.2497  v =  0.0000  0.0002  0.0002 -0.0003  1.0000  0.0000  0.0000  0.0000  0.0000  0.0000      0.0000  0.0000  0.0000  0.0000  0.0000  0.0000  0.0000  0.0000  0.0000  0.0000
atom =  10  type =  1  l = 2
 
 onsite density matrix
 
spin component  1
 
  0.1087 -0.0011 -0.0001 -0.0011 -0.0000
 -0.0011  0.0999  0.0003  0.0002  0.0002
 -0.0001  0.0003  0.2417  0.0004 -0.0000
 -0.0011  0.0002  0.0004  0.0999 -0.0002
 -0.0000  0.0002 -0.0000 -0.0002  0.2511
 
spin component  2
 
  0.1064 -0.0007 -0.0002 -0.0007 -0.0000
 -0.0007  0.0998  0.0004  0.0001  0.0002
 -0.0002  0.0004  0.2416  0.0004 -0.0000
 -0.0007  0.0001  0.0004  0.0998 -0.0002
 -0.0000  0.0002 -0.0000 -0.0002  0.2510
 
 occupancies and eigenvectors
 
  o =  0.0997  v =  0.0000  0.0000  0.0000  0.0000  0.0000 -0.0173 -0.7835  0.0004  0.6212  0.0021      0.0000  0.0000  0.0000  0.0000  0.0000  0.0000  0.0000  0.0000  0.0000  0.0000
  o =  0.0997  v =  0.0000  0.0000  0.0000  0.0000  0.0000  0.1499  0.6122 -0.0036  0.7763  0.0003      0.0000  0.0000  0.0000  0.0000  0.0000  0.0000  0.0000  0.0000  0.0000  0.0000
  o =  0.0997  v = -0.0079 -0.7388  0.0001  0.6739  0.0020  0.0000  0.0000  0.0000  0.0000  0.0000      0.0000  0.0000  0.0000  0.0000  0.0000  0.0000  0.0000  0.0000  0.0000  0.0000
  o =  0.0998  v =  0.1732  0.6627 -0.0033  0.7286  0.0001  0.0000  0.0000  0.0000  0.0000  0.0000      0.0000  0.0000  0.0000  0.0000  0.0000  0.0000  0.0000  0.0000  0.0000  0.0000
  o =  0.1065  v =  0.0000  0.0000  0.0000  0.0000  0.0000  0.9885 -0.1066  0.0021 -0.1069  0.0000      0.0000  0.0000  0.0000  0.0000  0.0000  0.0000  0.0000  0.0000  0.0000  0.0000
  o =  0.1090  v =  0.9849 -0.1225  0.0012 -0.1227  0.0000  0.0000  0.0000  0.0000  0.0000  0.0000      0.0000  0.0000  0.0000  0.0000  0.0000  0.0000  0.0000  0.0000  0.0000  0.0000
  o =  0.2416  v =  0.0000  0.0000  0.0000  0.0000  0.0000 -0.0016  0.0027  1.0000  0.0028  0.0002      0.0000  0.0000  0.0000  0.0000  0.0000  0.0000  0.0000  0.0000  0.0000  0.0000
  o =  0.2417  v = -0.0006  0.0024  1.0000  0.0025  0.0002  0.0000  0.0000  0.0000  0.0000  0.0000      0.0000  0.0000  0.0000  0.0000  0.0000  0.0000  0.0000  0.0000  0.0000  0.0000
  o =  0.2510  v =  0.0000  0.0000  0.0000  0.0000  0.0000  0.0001 -0.0015  0.0002  0.0015 -1.0000      0.0000  0.0000  0.0000  0.0000  0.0000  0.0000  0.0000  0.0000  0.0000  0.0000
  o =  0.2511  v =  0.0001 -0.0014  0.0002  0.0014 -1.0000  0.0000  0.0000  0.0000  0.0000  0.0000      0.0000  0.0000  0.0000  0.0000  0.0000  0.0000  0.0000  0.0000  0.0000  0.0000
atom =  11  type =  1  l = 2
 
 onsite density matrix
 
spin component  1
 
  0.1203  0.0000  0.0000 -0.0064  0.0000
  0.0000  0.1071  0.0067 -0.0000  0.0084
  0.0000  0.0067  0.2356  0.0000  0.0092
 -0.0064 -0.0000  0.0000  0.0976 -0.0000
  0.0000  0.0084  0.0092 -0.0000  0.2537
 
spin component  2
 
  0.1059  0.0000  0.0000 -0.0021  0.0000
  0.0000  0.1073  0.0070 -0.0000  0.0089
  0.0000  0.0070  0.2353  0.0000  0.0095
 -0.0021 -0.0000  0.0000  0.0960 -0.0000
  0.0000  0.0089  0.0095 -0.0000  0.2538
 
 occupancies and eigenvectors
 
  o =  0.0955  v =  0.0000  0.0000  0.0000  0.0000  0.0000  0.2012 -0.0000 -0.0000  0.9795  0.0000      0.0000  0.0000  0.0000  0.0000  0.0000  0.0000  0.0000  0.0000  0.0000  0.0000
  o =  0.0959  v =  0.2525  0.0000 -0.0000  0.9676  0.0000  0.0000  0.0000  0.0000  0.0000  0.0000      0.0000  0.0000  0.0000  0.0000  0.0000  0.0000  0.0000  0.0000  0.0000  0.0000
  o =  0.1063  v = -0.0000  0.9974 -0.0478  0.0000 -0.0540  0.0000  0.0000  0.0000  0.0000  0.0000      0.0000  0.0000  0.0000  0.0000  0.0000  0.0000  0.0000  0.0000  0.0000  0.0000
  o =  0.1063  v =  0.0000  0.0000  0.0000  0.0000  0.0000  0.9795 -0.0000  0.0000 -0.2012  0.0000      0.0000  0.0000  0.0000  0.0000  0.0000  0.0000  0.0000  0.0000  0.0000  0.0000
  o =  0.1065  v =  0.0000  0.0000  0.0000  0.0000  0.0000  0.0000  0.9971 -0.0498 -0.0000 -0.0573      0.0000  0.0000  0.0000  0.0000  0.0000  0.0000  0.0000  0.0000  0.0000  0.0000
  o =  0.1220  v =  0.9676  0.0000 -0.0000 -0.2525 -0.0000  0.0000  0.0000  0.0000  0.0000  0.0000      0.0000  0.0000  0.0000  0.0000  0.0000  0.0000  0.0000  0.0000  0.0000  0.0000
  o =  0.2314  v =  0.0000  0.0000  0.0000  0.0000  0.0000 -0.0000  0.0231  0.9178  0.0000 -0.3963      0.0000  0.0000  0.0000  0.0000  0.0000  0.0000  0.0000  0.0000  0.0000  0.0000
  o =  0.2318  v = -0.0000  0.0226  0.9183  0.0000 -0.3952  0.0000  0.0000  0.0000  0.0000  0.0000      0.0000  0.0000  0.0000  0.0000  0.0000  0.0000  0.0000  0.0000  0.0000  0.0000
  o =  0.2583  v =  0.0000  0.0685  0.3929 -0.0000  0.9170  0.0000  0.0000  0.0000  0.0000  0.0000      0.0000  0.0000  0.0000  0.0000  0.0000  0.0000  0.0000  0.0000  0.0000  0.0000
  o =  0.2586  v =  0.0000  0.0000  0.0000  0.0000  0.0000  0.0000  0.0723  0.3939 -0.0000  0.9163      0.0000  0.0000  0.0000  0.0000  0.0000  0.0000  0.0000  0.0000  0.0000  0.0000
atom =  12  type =  1  l = 2
 
 onsite density matrix
 
spin component  1
 
  0.1087  0.0011  0.0001 -0.0011  0.0000
  0.0011  0.0999  0.0003 -0.0002  0.0002
  0.0001  0.0003  0.2417 -0.0004 -0.0000
 -0.0011 -0.0002 -0.0004  0.0999  0.0002
  0.0000  0.0002 -0.0000  0.0002  0.2511
 
spin component  2
 
  0.1064  0.0007  0.0002 -0.0007  0.0000
  0.0007  0.0998  0.0004 -0.0001  0.0002
  0.0002  0.0004  0.2416 -0.0004 -0.0000
 -0.0007 -0.0001 -0.0004  0.0998  0.0002
  0.0000  0.0002 -0.0000  0.0002  0.2510
 
 occupancies and eigenvectors
 
  o =  0.0997  v =  0.0000  0.0000  0.0000  0.0000  0.0000  0.0173 -0.7833  0.0004 -0.6214  0.0021      0.0000  0.0000  0.0000  0.0000  0.0000  0.0000  0.0000  0.0000  0.0000  0.0000
  o =  0.0997  v =  0.0000  0.0000  0.0000  0.0000  0.0000  0.1499 -0.6124  0.0036  0.7762 -0.0003      0.0000  0.0000  0.0000  0.0000  0.0000  0.0000  0.0000  0.0000  0.0000  0.0000
  o =  0.0997  v =  0.0079 -0.7387  0.0001 -0.6740  0.0020  0.0000  0.0000  0.0000  0.0000  0.0000      0.0000  0.0000  0.0000  0.0000  0.0000  0.0000  0.0000  0.0000  0.0000  0.0000
  o =  0.0998  v =  0.1732 -0.6628  0.0033  0.7285 -0.0001  0.0000  0.0000  0.0000  0.0000  0.0000      0.0000  0.0000  0.0000  0.0000  0.0000  0.0000  0.0000  0.0000  0.0000  0.0000
  o =  0.1065  v =  0.0000  0.0000  0.0000  0.0000  0.0000  0.9885  0.1066 -0.0021 -0.1069 -0.0000      0.0000  0.0000  0.0000  0.0000  0.0000  0.0000  0.0000  0.0000  0.0000  0.0000
  o =  0.1090  v =  0.9849  0.1225 -0.0012 -0.1227 -0.0000  0.0000  0.0000  0.0000  0.0000  0.0000      0.0000  0.0000  0.0000  0.0000  0.0000  0.0000  0.0000  0.0000  0.0000  0.0000
  o =  0.2416  v =  0.0000  0.0000  0.0000  0.0000  0.0000 -0.0016 -0.0027 -1.0000  0.0028 -0.0002      0.0000  0.0000  0.0000  0.0000  0.0000  0.0000  0.0000  0.0000  0.0000  0.0000
  o =  0.2417  v = -0.0006 -0.0024 -1.0000  0.0025 -0.0002  0.0000  0.0000  0.0000  0.0000  0.0000      0.0000  0.0000  0.0000  0.0000  0.0000  0.0000  0.0000  0.0000  0.0000  0.0000
  o =  0.2510  v =  0.0000  0.0000  0.0000  0.0000  0.0000  0.0001  0.0015 -0.0002  0.0015  1.0000      0.0000  0.0000  0.0000  0.0000  0.0000  0.0000  0.0000  0.0000  0.0000  0.0000
  o =  0.2511  v =  0.0001  0.0014 -0.0002  0.0014  1.0000  0.0000  0.0000  0.0000  0.0000  0.0000      0.0000  0.0000  0.0000  0.0000  0.0000  0.0000  0.0000  0.0000  0.0000  0.0000
atom =  13  type =  1  l = 2
 
 onsite density matrix
 
spin component  1
 
  0.1087 -0.0011  0.0001  0.0011  0.0000
 -0.0011  0.0999 -0.0003 -0.0002 -0.0002
  0.0001 -0.0003  0.2417  0.0003 -0.0000
  0.0011 -0.0002  0.0003  0.0999 -0.0002
  0.0000 -0.0002 -0.0000 -0.0002  0.2511
 
spin component  2
 
  0.1064 -0.0007  0.0002  0.0007  0.0000
 -0.0007  0.0998 -0.0004 -0.0001 -0.0002
  0.0002 -0.0004  0.2416  0.0004 -0.0000
  0.0007 -0.0001  0.0004  0.0998 -0.0002
  0.0000 -0.0002 -0.0000 -0.0002  0.2510
 
 occupancies and eigenvectors
 
  o =  0.0997  v =  0.0000  0.0000  0.0000  0.0000  0.0000  0.0028 -0.6927  0.0001 -0.7212 -0.0021      0.0000  0.0000  0.0000  0.0000  0.0000  0.0000  0.0000  0.0000  0.0000  0.0000
  o =  0.0997  v =  0.0000  0.0000  0.0000  0.0000  0.0000 -0.1499 -0.7134 -0.0036  0.6845 -0.0001      0.0000  0.0000  0.0000  0.0000  0.0000  0.0000  0.0000  0.0000  0.0000  0.0000
  o =  0.0997  v =  0.0010 -0.7022  0.0000 -0.7120 -0.0020  0.0000  0.0000  0.0000  0.0000  0.0000      0.0000  0.0000  0.0000  0.0000  0.0000  0.0000  0.0000  0.0000  0.0000  0.0000
  o =  0.0998  v = -0.1727 -0.7014 -0.0033  0.6915 -0.0000  0.0000  0.0000  0.0000  0.0000  0.0000      0.0000  0.0000  0.0000  0.0000  0.0000  0.0000  0.0000  0.0000  0.0000  0.0000
  o =  0.1065  v =  0.0000  0.0000  0.0000  0.0000  0.0000 -0.9887  0.1062  0.0021 -0.1058  0.0000      0.0000  0.0000  0.0000  0.0000  0.0000  0.0000  0.0000  0.0000  0.0000  0.0000
  o =  0.1090  v =  0.9850 -0.1222 -0.0012  0.1220 -0.0000  0.0000  0.0000  0.0000  0.0000  0.0000      0.0000  0.0000  0.0000  0.0000  0.0000  0.0000  0.0000  0.0000  0.0000  0.0000
  o =  0.2416  v =  0.0000  0.0000  0.0000  0.0000  0.0000  0.0015 -0.0027  1.0000  0.0027  0.0001      0.0000  0.0000  0.0000  0.0000  0.0000  0.0000  0.0000  0.0000  0.0000  0.0000
  o =  0.2417  v = -0.0006  0.0024 -1.0000 -0.0025 -0.0001  0.0000  0.0000  0.0000  0.0000  0.0000      0.0000  0.0000  0.0000  0.0000  0.0000  0.0000  0.0000  0.0000  0.0000  0.0000
  o =  0.2510  v =  0.0000  0.0000  0.0000  0.0000  0.0000  0.0000 -0.0015 -0.0001 -0.0015  1.0000      0.0000  0.0000  0.0000  0.0000  0.0000  0.0000  0.0000  0.0000  0.0000  0.0000
  o =  0.2511  v =  0.0000 -0.0014 -0.0001 -0.0014  1.0000  0.0000  0.0000  0.0000  0.0000  0.0000      0.0000  0.0000  0.0000  0.0000  0.0000  0.0000  0.0000  0.0000  0.0000  0.0000
atom =  14  type =  1  l = 2
 
 onsite density matrix
 
spin component  1
 
  0.1203  0.0000 -0.0000  0.0064 -0.0000
  0.0000  0.1071 -0.0067  0.0000 -0.0084
 -0.0000 -0.0067  0.2356 -0.0000  0.0092
  0.0064  0.0000 -0.0000  0.0976 -0.0000
 -0.0000 -0.0084  0.0092 -0.0000  0.2537
 
spin component  2
 
  0.1059  0.0000 -0.0000  0.0021 -0.0000
  0.0000  0.1073 -0.0070  0.0000 -0.0089
 -0.0000 -0.0070  0.2353 -0.0000  0.0095
  0.0021  0.0000 -0.0000  0.0960 -0.0000
 -0.0000 -0.0089  0.0095 -0.0000  0.2538
 
 occupancies and eigenvectors
 
  o =  0.0955  v =  0.0000  0.0000  0.0000  0.0000  0.0000  0.2013 -0.0000 -0.0000 -0.9795 -0.0000      0.0000  0.0000  0.0000  0.0000  0.0000  0.0000  0.0000  0.0000  0.0000  0.0000
  o =  0.0959  v =  0.2525 -0.0000 -0.0000 -0.9676 -0.0000  0.0000  0.0000  0.0000  0.0000  0.0000      0.0000  0.0000  0.0000  0.0000  0.0000  0.0000  0.0000  0.0000  0.0000  0.0000
  o =  0.1063  v =  0.0000 -0.9974 -0.0477  0.0000 -0.0541  0.0000  0.0000  0.0000  0.0000  0.0000      0.0000  0.0000  0.0000  0.0000  0.0000  0.0000  0.0000  0.0000  0.0000  0.0000
  o =  0.1063  v =  0.0000  0.0000  0.0000  0.0000  0.0000  0.9795 -0.0001 -0.0000  0.2013 -0.0000      0.0000  0.0000  0.0000  0.0000  0.0000  0.0000  0.0000  0.0000  0.0000  0.0000
  o =  0.1065  v =  0.0000  0.0000  0.0000  0.0000  0.0000 -0.0001 -0.9971 -0.0498 -0.0000 -0.0573      0.0000  0.0000  0.0000  0.0000  0.0000  0.0000  0.0000  0.0000  0.0000  0.0000
  o =  0.1220  v =  0.9676  0.0000  0.0000  0.2525  0.0000  0.0000  0.0000  0.0000  0.0000  0.0000      0.0000  0.0000  0.0000  0.0000  0.0000  0.0000  0.0000  0.0000  0.0000  0.0000
  o =  0.2314  v =  0.0000  0.0000  0.0000  0.0000  0.0000  0.0000 -0.0230  0.9178  0.0000 -0.3963      0.0000  0.0000  0.0000  0.0000  0.0000  0.0000  0.0000  0.0000  0.0000  0.0000
  o =  0.2318  v =  0.0000 -0.0225  0.9184  0.0000 -0.3951  0.0000  0.0000  0.0000  0.0000  0.0000      0.0000  0.0000  0.0000  0.0000  0.0000  0.0000  0.0000  0.0000  0.0000  0.0000
  o =  0.2583  v = -0.0000 -0.0685  0.3929 -0.0000  0.9170  0.0000  0.0000  0.0000  0.0000  0.0000      0.0000  0.0000  0.0000  0.0000  0.0000  0.0000  0.0000  0.0000  0.0000  0.0000
  o =  0.2586  v =  0.0000  0.0000  0.0000  0.0000  0.0000 -0.0000 -0.0723  0.3938 -0.0000  0.9163      0.0000  0.0000  0.0000  0.0000  0.0000  0.0000  0.0000  0.0000  0.0000  0.0000
atom =  15  type =  1  l = 2
 
 onsite density matrix
 
spin component  1
 
  0.1087  0.0011 -0.0001  0.0011 -0.0000
  0.0011  0.0999 -0.0003  0.0002 -0.0002
 -0.0001 -0.0003  0.2417 -0.0003 -0.0000
  0.0011  0.0002 -0.0003  0.0999  0.0002
 -0.0000 -0.0002 -0.0000  0.0002  0.2511
 
spin component  2
 
  0.1064  0.0007 -0.0002  0.0007 -0.0000
  0.0007  0.0998 -0.0004  0.0001 -0.0002
 -0.0002 -0.0004  0.2416 -0.0004 -0.0000
  0.0007  0.0001 -0.0004  0.0998  0.0002
 -0.0000 -0.0002 -0.0000  0.0002  0.2510
 
 occupancies and eigenvectors
 
  o =  0.0997  v =  0.0000  0.0000  0.0000  0.0000  0.0000 -0.0029 -0.6922  0.0001  0.7217 -0.0021      0.0000  0.0000  0.0000  0.0000  0.0000  0.0000  0.0000  0.0000  0.0000  0.0000
  o =  0.0997  v =  0.0000  0.0000  0.0000  0.0000  0.0000 -0.1499  0.7138  0.0036  0.6841  0.0001      0.0000  0.0000  0.0000  0.0000  0.0000  0.0000  0.0000  0.0000  0.0000  0.0000
  o =  0.0997  v = -0.0011 -0.7020  0.0000  0.7121 -0.0020  0.0000  0.0000  0.0000  0.0000  0.0000      0.0000  0.0000  0.0000  0.0000  0.0000  0.0000  0.0000  0.0000  0.0000  0.0000
  o =  0.0998  v = -0.1727  0.7016  0.0033  0.6914  0.0000  0.0000  0.0000  0.0000  0.0000  0.0000      0.0000  0.0000  0.0000  0.0000  0.0000  0.0000  0.0000  0.0000  0.0000  0.0000
  o =  0.1065  v =  0.0000  0.0000  0.0000  0.0000  0.0000 -0.9887 -0.1062 -0.0021 -0.1058 -0.0000      0.0000  0.0000  0.0000  0.0000  0.0000  0.0000  0.0000  0.0000  0.0000  0.0000
  o =  0.1090  v =  0.9850  0.1222  0.0012  0.1220  0.0000  0.0000  0.0000  0.0000  0.0000  0.0000      0.0000  0.0000  0.0000  0.0000  0.0000  0.0000  0.0000  0.0000  0.0000  0.0000
  o =  0.2416  v =  0.0000  0.0000  0.0000  0.0000  0.0000  0.0015  0.0027 -1.0000  0.0027 -0.0001      0.0000  0.0000  0.0000  0.0000  0.0000  0.0000  0.0000  0.0000  0.0000  0.0000
  o =  0.2417  v = -0.0006 -0.0024  1.0000 -0.0025  0.0001  0.0000  0.0000  0.0000  0.0000  0.0000      0.0000  0.0000  0.0000  0.0000  0.0000  0.0000  0.0000  0.0000  0.0000  0.0000
  o =  0.2510  v =  0.0000  0.0000  0.0000  0.0000  0.0000  0.0000  0.0015  0.0001 -0.0015 -1.0000      0.0000  0.0000  0.0000  0.0000  0.0000  0.0000  0.0000  0.0000  0.0000  0.0000
  o =  0.2511  v =  0.0000  0.0014  0.0001 -0.0014 -1.0000  0.0000  0.0000  0.0000  0.0000  0.0000      0.0000  0.0000  0.0000  0.0000  0.0000  0.0000  0.0000  0.0000  0.0000  0.0000
atom =  16  type =  1  l = 2
 
 onsite density matrix
 
spin component  1
 
  0.1203 -0.0064 -0.0000  0.0000  0.0000
 -0.0064  0.0976 -0.0000  0.0000 -0.0000
 -0.0000 -0.0000  0.2356  0.0067 -0.0092
  0.0000  0.0000  0.0067  0.1071 -0.0084
  0.0000 -0.0000 -0.0092 -0.0084  0.2537
 
spin component  2
 
  0.1059 -0.0021 -0.0000 -0.0000  0.0000
 -0.0021  0.0960 -0.0000  0.0000 -0.0000
 -0.0000 -0.0000  0.2353  0.0070 -0.0095
 -0.0000  0.0000  0.0070  0.1073 -0.0089
  0.0000 -0.0000 -0.0095 -0.0089  0.2538
 
 occupancies and eigenvectors
 
  o =  0.0955  v =  0.0000  0.0000  0.0000  0.0000  0.0000 -0.2016 -0.9795 -0.0000  0.0001  0.0000      0.0000  0.0000  0.0000  0.0000  0.0000  0.0000  0.0000  0.0000  0.0000  0.0000
  o =  0.0959  v =  0.2526  0.9676  0.0000 -0.0001 -0.0000  0.0000  0.0000  0.0000  0.0000  0.0000      0.0000  0.0000  0.0000  0.0000  0.0000  0.0000  0.0000  0.0000  0.0000  0.0000
  o =  0.1063  v =  0.0001 -0.0001  0.0478 -0.9974 -0.0540  0.0000  0.0000  0.0000  0.0000  0.0000      0.0000  0.0000  0.0000  0.0000  0.0000  0.0000  0.0000  0.0000  0.0000  0.0000
  o =  0.1063  v =  0.0000  0.0000  0.0000  0.0000  0.0000  0.9795 -0.2016  0.0001 -0.0018 -0.0002      0.0000  0.0000  0.0000  0.0000  0.0000  0.0000  0.0000  0.0000  0.0000  0.0000
  o =  0.1065  v =  0.0000  0.0000  0.0000  0.0000  0.0000 -0.0018  0.0003  0.0498 -0.9971 -0.0572      0.0000  0.0000  0.0000  0.0000  0.0000  0.0000  0.0000  0.0000  0.0000  0.0000
  o =  0.1220  v = -0.9676  0.2526 -0.0000 -0.0001  0.0001  0.0000  0.0000  0.0000  0.0000  0.0000      0.0000  0.0000  0.0000  0.0000  0.0000  0.0000  0.0000  0.0000  0.0000  0.0000
  o =  0.2314  v =  0.0000  0.0000  0.0000  0.0000  0.0000 -0.0000  0.0000 -0.9178 -0.0231 -0.3963      0.0000  0.0000  0.0000  0.0000  0.0000  0.0000  0.0000  0.0000  0.0000  0.0000
  o =  0.2318  v = -0.0000  0.0000 -0.9183 -0.0226 -0.3952  0.0000  0.0000  0.0000  0.0000  0.0000      0.0000  0.0000  0.0000  0.0000  0.0000  0.0000  0.0000  0.0000  0.0000  0.0000
  o =  0.2583  v =  0.0001  0.0000 -0.3930 -0.0685  0.9170  0.0000  0.0000  0.0000  0.0000  0.0000      0.0000  0.0000  0.0000  0.0000  0.0000  0.0000  0.0000  0.0000  0.0000  0.0000
  o =  0.2586  v =  0.0000  0.0000  0.0000  0.0000  0.0000  0.0001 -0.0000 -0.3939 -0.0723  0.9163      0.0000  0.0000  0.0000  0.0000  0.0000  0.0000  0.0000  0.0000  0.0000  0.0000
atom =  17  type =  1  l = 2
 
 onsite density matrix
 
spin component  1
 
  0.8599 -0.0000 -0.0000 -0.0000 -0.0000
 -0.0000  0.0621  0.0000  0.0000 -0.0000
 -0.0000  0.0000  0.1620  0.0000 -0.0000
 -0.0000  0.0000  0.0000  0.0621 -0.0000
 -0.0000 -0.0000 -0.0000 -0.0000  0.1468
 
spin component  2
 
  0.0402  0.0000 -0.0000 -0.0000  0.0000
  0.0000  0.0559  0.0000  0.0000 -0.0000
 -0.0000  0.0000  0.1495  0.0000 -0.0000
 -0.0000  0.0000  0.0000  0.0559 -0.0000
  0.0000 -0.0000 -0.0000 -0.0000  0.1392
 
 occupancies and eigenvectors
 
  o =  0.0402  v =  0.0000  0.0000  0.0000  0.0000  0.0000  1.0000 -0.0000  0.0000  0.0000 -0.0000      0.0000  0.0000  0.0000  0.0000  0.0000  0.0000  0.0000  0.0000  0.0000  0.0000
  o =  0.0559  v =  0.0000  0.0000  0.0000  0.0000  0.0000 -0.0000 -1.0000  0.0000  0.0003 -0.0000      0.0000  0.0000  0.0000  0.0000  0.0000  0.0000  0.0000  0.0000  0.0000  0.0000
  o =  0.0559  v =  0.0000  0.0000  0.0000  0.0000  0.0000 -0.0000  0.0003 -0.0000  1.0000  0.0000      0.0000  0.0000  0.0000  0.0000  0.0000  0.0000  0.0000  0.0000  0.0000  0.0000
  o =  0.0621  v = -0.0000 -1.0000  0.0000  0.0002 -0.0000  0.0000  0.0000  0.0000  0.0000  0.0000      0.0000  0.0000  0.0000  0.0000  0.0000  0.0000  0.0000  0.0000  0.0000  0.0000
  o =  0.0621  v = -0.0000 -0.0002  0.0000 -1.0000 -0.0000  0.0000  0.0000  0.0000  0.0000  0.0000      0.0000  0.0000  0.0000  0.0000  0.0000  0.0000  0.0000  0.0000  0.0000  0.0000
  o =  0.1392  v =  0.0000  0.0000  0.0000  0.0000  0.0000 -0.0000  0.0000 -0.0001  0.0000 -1.0000      0.0000  0.0000  0.0000  0.0000  0.0000  0.0000  0.0000  0.0000  0.0000  0.0000
  o =  0.1468  v =  0.0000 -0.0000  0.0001 -0.0000  1.0000  0.0000  0.0000  0.0000  0.0000  0.0000      0.0000  0.0000  0.0000  0.0000  0.0000  0.0000  0.0000  0.0000  0.0000  0.0000
  o =  0.1495  v =  0.0000  0.0000  0.0000  0.0000  0.0000  0.0000 -0.0000 -1.0000 -0.0000  0.0001      0.0000  0.0000  0.0000  0.0000  0.0000  0.0000  0.0000  0.0000  0.0000  0.0000
  o =  0.1620  v =  0.0000  0.0000  1.0000  0.0000 -0.0001  0.0000  0.0000  0.0000  0.0000  0.0000      0.0000  0.0000  0.0000  0.0000  0.0000  0.0000  0.0000  0.0000  0.0000  0.0000
  o =  0.8599  v = -1.0000  0.0000  0.0000  0.0000  0.0000  0.0000  0.0000  0.0000  0.0000  0.0000      0.0000  0.0000  0.0000  0.0000  0.0000  0.0000  0.0000  0.0000  0.0000  0.0000
atom =  18  type =  1  l = 2
 
 onsite density matrix
 
spin component  1
 
  0.1203  0.0064  0.0000  0.0000 -0.0000
  0.0064  0.0976 -0.0000 -0.0000 -0.0000
  0.0000 -0.0000  0.2356 -0.0067 -0.0092
  0.0000 -0.0000 -0.0067  0.1071  0.0084
 -0.0000 -0.0000 -0.0092  0.0084  0.2537
 
spin component  2
 
  0.1059  0.0021  0.0000 -0.0000 -0.0000
  0.0021  0.0960 -0.0000 -0.0000 -0.0000
  0.0000 -0.0000  0.2353 -0.0070 -0.0095
 -0.0000 -0.0000 -0.0070  0.1073  0.0089
 -0.0000 -0.0000 -0.0095  0.0089  0.2538
 
 occupancies and eigenvectors
 
  o =  0.0955  v =  0.0000  0.0000  0.0000  0.0000  0.0000  0.2016 -0.9795 -0.0000 -0.0001  0.0000      0.0000  0.0000  0.0000  0.0000  0.0000  0.0000  0.0000  0.0000  0.0000  0.0000
  o =  0.0959  v = -0.2526  0.9676  0.0000  0.0001 -0.0000  0.0000  0.0000  0.0000  0.0000  0.0000      0.0000  0.0000  0.0000  0.0000  0.0000  0.0000  0.0000  0.0000  0.0000  0.0000
  o =  0.1063  v = -0.0001 -0.0001  0.0478  0.9974 -0.0540  0.0000  0.0000  0.0000  0.0000  0.0000      0.0000  0.0000  0.0000  0.0000  0.0000  0.0000  0.0000  0.0000  0.0000  0.0000
  o =  0.1063  v =  0.0000  0.0000  0.0000  0.0000  0.0000  0.9795  0.2016 -0.0001 -0.0019  0.0002      0.0000  0.0000  0.0000  0.0000  0.0000  0.0000  0.0000  0.0000  0.0000  0.0000
  o =  0.1065  v =  0.0000  0.0000  0.0000  0.0000  0.0000 -0.0019 -0.0003 -0.0498 -0.9971  0.0572      0.0000  0.0000  0.0000  0.0000  0.0000  0.0000  0.0000  0.0000  0.0000  0.0000
  o =  0.1220  v = -0.9676 -0.2526  0.0000 -0.0001 -0.0001  0.0000  0.0000  0.0000  0.0000  0.0000      0.0000  0.0000  0.0000  0.0000  0.0000  0.0000  0.0000  0.0000  0.0000  0.0000
  o =  0.2314  v =  0.0000  0.0000  0.0000  0.0000  0.0000  0.0000  0.0000 -0.9178  0.0231 -0.3963      0.0000  0.0000  0.0000  0.0000  0.0000  0.0000  0.0000  0.0000  0.0000  0.0000
  o =  0.2318  v = -0.0000 -0.0000  0.9183 -0.0226  0.3952  0.0000  0.0000  0.0000  0.0000  0.0000      0.0000  0.0000  0.0000  0.0000  0.0000  0.0000  0.0000  0.0000  0.0000  0.0000
  o =  0.2583  v = -0.0001  0.0000 -0.3929  0.0685  0.9170  0.0000  0.0000  0.0000  0.0000  0.0000      0.0000  0.0000  0.0000  0.0000  0.0000  0.0000  0.0000  0.0000  0.0000  0.0000
  o =  0.2586  v =  0.0000  0.0000  0.0000  0.0000  0.0000 -0.0001 -0.0000 -0.3939  0.0723  0.9163      0.0000  0.0000  0.0000  0.0000  0.0000  0.0000  0.0000  0.0000  0.0000  0.0000
atom =  19  type =  1  l = 2
 
 onsite density matrix
 
spin component  1
 
  0.1065 -0.0000  0.0000  0.0003  0.0000
 -0.0000  0.1007 -0.0006 -0.0000 -0.0011
  0.0000 -0.0006  0.2420 -0.0000 -0.0000
  0.0003 -0.0000 -0.0000  0.0996  0.0000
  0.0000 -0.0011 -0.0000  0.0000  0.2503
 
spin component  2
 
  0.1062 -0.0000  0.0000  0.0003  0.0000
 -0.0000  0.1007 -0.0006 -0.0000 -0.0012
  0.0000 -0.0006  0.2420 -0.0000 -0.0001
  0.0003 -0.0000 -0.0000  0.0996  0.0000
  0.0000 -0.0012 -0.0001  0.0000  0.2503
 
 occupancies and eigenvectors
 
  o =  0.0996  v =  0.0000  0.0000  0.0000  0.0000  0.0000  0.0431 -0.0000 -0.0000 -0.9991  0.0000      0.0000  0.0000  0.0000  0.0000  0.0000  0.0000  0.0000  0.0000  0.0000  0.0000
  o =  0.0996  v =  0.0451 -0.0000 -0.0000 -0.9990  0.0000  0.0000  0.0000  0.0000  0.0000  0.0000      0.0000  0.0000  0.0000  0.0000  0.0000  0.0000  0.0000  0.0000  0.0000  0.0000
  o =  0.1007  v =  0.0000  0.0000  0.0000  0.0000  0.0000 -0.0000 -1.0000 -0.0041  0.0000 -0.0077      0.0000  0.0000  0.0000  0.0000  0.0000  0.0000  0.0000  0.0000  0.0000  0.0000
  o =  0.1007  v = -0.0000 -1.0000 -0.0041  0.0000 -0.0076  0.0000  0.0000  0.0000  0.0000  0.0000      0.0000  0.0000  0.0000  0.0000  0.0000  0.0000  0.0000  0.0000  0.0000  0.0000
  o =  0.1063  v =  0.0000  0.0000  0.0000  0.0000  0.0000 -0.9991  0.0000  0.0000 -0.0431  0.0000      0.0000  0.0000  0.0000  0.0000  0.0000  0.0000  0.0000  0.0000  0.0000  0.0000
  o =  0.1066  v = -0.9990  0.0000  0.0000 -0.0451  0.0000  0.0000  0.0000  0.0000  0.0000  0.0000      0.0000  0.0000  0.0000  0.0000  0.0000  0.0000  0.0000  0.0000  0.0000  0.0000
  o =  0.2420  v =  0.0000  0.0000  0.0000  0.0000  0.0000  0.0000 -0.0041  1.0000 -0.0000  0.0058      0.0000  0.0000  0.0000  0.0000  0.0000  0.0000  0.0000  0.0000  0.0000  0.0000
  o =  0.2420  v =  0.0000 -0.0041  1.0000 -0.0000  0.0051  0.0000  0.0000  0.0000  0.0000  0.0000      0.0000  0.0000  0.0000  0.0000  0.0000  0.0000  0.0000  0.0000  0.0000  0.0000
  o =  0.2503  v =  0.0000  0.0000  0.0000  0.0000  0.0000 -0.0000  0.0077  0.0058 -0.0000 -1.0000      0.0000  0.0000  0.0000  0.0000  0.0000  0.0000  0.0000  0.0000  0.0000  0.0000
  o =  0.2503  v = -0.0000  0.0076  0.0051 -0.0000 -1.0000  0.0000  0.0000  0.0000  0.0000  0.0000      0.0000  0.0000  0.0000  0.0000  0.0000  0.0000  0.0000  0.0000  0.0000  0.0000
atom =  20  type =  1  l = 2
 
 onsite density matrix
 
spin component  1
 
  0.1059  0.0005 -0.0001  0.0002 -0.0006
  0.0005  0.1007 -0.0001 -0.0000 -0.0010
 -0.0001 -0.0001  0.2423 -0.0008  0.0003
  0.0002 -0.0000 -0.0008  0.0992  0.0010
 -0.0006 -0.0010  0.0003  0.0010  0.2501
 
spin component  2
 
  0.1059  0.0005 -0.0001  0.0002 -0.0005
  0.0005  0.1006 -0.0003  0.0000 -0.0012
 -0.0001 -0.0003  0.2422 -0.0007  0.0002
[...]
      9.50681      1.90137      4.87389        -0.005867     -0.005823      0.000008
      1.90132      5.70406      4.87388         0.005861      0.005842      0.000006
      5.70406      5.70736      4.89861         0.000000      0.013219      0.003678
      9.50681      5.70406      4.87388        -0.005859      0.005839      0.000004
      1.90457      9.50678      4.84912         0.013239     -0.000005     -0.003576
      5.70406      9.50685      4.87388         0.000015     -0.000051     -0.000020
      9.50356      9.50678      4.84912        -0.013230     -0.000004     -0.003572
      0.00000      1.89961      2.43486         0.000000      0.000940     -0.000831
      3.80676      1.89902      2.44340         0.004292     -0.005969      0.001875
      7.60137      1.89902      2.44340        -0.004291     -0.005969      0.001875
      0.00000      5.70575      2.43486         0.000000     -0.000915     -0.000846
      3.80676      5.70638      2.44341         0.004303      0.005939      0.001872
      7.60137      5.70638      2.44341        -0.004304      0.005937      0.001870
      0.00000      9.50676      2.42363         0.000002     -0.000005      0.010288
      3.80545      9.50678      2.44343         0.011153     -0.000037      0.015169
      7.60268      9.50678      2.44343        -0.011156     -0.000036      0.015163
      1.90365     11.40405      7.30434         0.005958     -0.004252     -0.001855
      5.70406     11.40541      7.30431        -0.000000     -0.011163     -0.015217
      9.50448     11.40405      7.30434        -0.005958     -0.004251     -0.001853
      1.90307      3.80271      7.31290        -0.000938      0.000024      0.000841
      5.70406      3.80275      7.32413         0.000002      0.000016     -0.010271
      9.50506      3.80271      7.31290         0.000937      0.000023      0.000841
      1.90367      7.60947      7.30433         0.005945      0.004264     -0.001856
      5.70406      7.60817      7.30433        -0.000002      0.011221     -0.015223
      9.50446      7.60947      7.30433        -0.005945      0.004263     -0.001853
      0.00000      0.00506      2.00266         0.000000      0.001482     -0.002527
      3.79572      0.00355      2.01200        -0.000986      0.006037     -0.003681
      7.61241      0.00355      2.01200         0.000986      0.006036     -0.003682
     11.40813      3.80267      2.01271         0.000000     -0.000024     -0.000629
      3.80520      3.80268      2.02165         0.000115     -0.000037     -0.003803
      7.60293      3.80268      2.02165        -0.000116     -0.000033     -0.003803
      0.00000      7.60032      2.00265        -0.000000     -0.001498     -0.002514
      3.79567      7.60184      2.01201        -0.000971     -0.006039     -0.003691
      7.61246      7.60184      2.01201         0.000971     -0.006042     -0.003689
      1.90128      1.90223      6.89024        -0.001223      0.001364      0.001425
      5.70406      1.91378      6.92554        -0.000000      0.007428      0.000685
      9.50685      1.90223      6.89024         0.001223      0.001363      0.001422
      1.90123      5.70320      6.89026        -0.001257     -0.001354      0.001427
      5.70406      5.69173      6.92553         0.000001     -0.007407      0.000676
      9.50690      5.70320      6.89026         0.001257     -0.001351      0.001425
      1.90827      9.50676      6.87962        -0.003377      0.000036      0.005956
      5.70406      9.50679      6.92875        -0.000004      0.000006      0.012013
      9.49986      9.50676      6.87962         0.003378      0.000034      0.005955
     11.40813      1.90921      4.44525        -0.000000      0.000037     -0.000022
      3.79686      1.91338      4.45399        -0.007351      0.001884     -0.005362
      7.61127      1.91338      4.45399         0.007352      0.001884     -0.005362
     11.40813      5.69646      4.44524        -0.000001     -0.000019     -0.000037
      3.79686      5.69227      4.45399        -0.007352     -0.001873     -0.005368
      7.61127      5.69227      4.45399         0.007352     -0.001873     -0.005369
     11.40813      9.50664      4.42557        -0.000002     -0.000015      0.000365
      3.75356      9.50687      4.41645        -0.025258      0.000001     -0.006881
      7.65457      9.50687      4.41645         0.025245      0.000002     -0.006883
      1.89918      0.00511      9.32050         0.000693     -0.001509      0.003503
      5.70406      0.00780      9.33841         0.000002      0.002021      0.006421
      9.50895      0.00511      9.32050        -0.000693     -0.001509      0.003503
      1.89920      3.80262      9.32994         0.001281     -0.000026      0.002027
      5.70406      3.80263      9.34481        -0.000001     -0.000025     -0.000120
      9.50893      3.80262      9.32994        -0.001281     -0.000025      0.002027
      1.89917      7.60024      9.32046         0.000707      0.001481      0.003520
      5.70406      7.59753      9.33844        -0.000001     -0.001982      0.006395
      9.50896      7.60024      9.32046        -0.000707      0.001481      0.003519
      1.88926      0.00582      5.29376        -0.001795      0.007366      0.005374
      5.70406      0.04921      5.33130        -0.000004      0.025322      0.006832
      9.51887      0.00582      5.29376         0.001795      0.007364      0.005373
      1.89369      3.80272      5.30255        -0.000020     -0.000002      0.000069
      5.70406      3.80275      5.32217        -0.000001     -0.000022     -0.000364
      9.51444      3.80272      5.30255         0.000019     -0.000001      0.000066
      1.88938      7.59961      5.29376        -0.001804     -0.007343      0.005380
      5.70406      7.55633      5.33129        -0.000006     -0.025216      0.006830
      9.51875      7.59961      5.29376         0.001804     -0.007341      0.005379
     11.40813      1.90350      0.41782         0.000002     -0.001298     -0.002003
      3.79744      1.90353      0.42725         0.001497     -0.000709     -0.003508
      7.61068      1.90353      0.42725        -0.001499     -0.000712     -0.003507
     11.40813      5.70189      0.41780         0.000000      0.001278     -0.002011
      3.79740      5.70187      0.42725         0.001501      0.000672     -0.003532
      7.61072      5.70187      0.42725        -0.001501      0.000672     -0.003531
      0.00000      9.50673      0.40298         0.000000     -0.000002      0.000075
      3.79480      9.50673      0.40934        -0.002047     -0.000009     -0.006438
      7.61333      9.50673      0.40934         0.002046     -0.000005     -0.006438
      1.90049      1.90159      2.85752        -0.001378      0.001231     -0.001393
      5.70406      1.89456      2.86810        -0.000002      0.003308     -0.005970
      9.50764      1.90159      2.85752         0.001379      0.001232     -0.001392
      1.90049      5.70380      2.85751        -0.001378     -0.001278     -0.001405
      5.70406      5.71080      2.86808         0.000002     -0.003368     -0.005973
      9.50764      5.70380      2.85751         0.001377     -0.001279     -0.001405
      1.88897      9.50685      2.82220        -0.007405      0.000011     -0.000682
      5.70406      9.50669      2.81899         0.000004     -0.000000     -0.012144
      9.51916      9.50685      2.82220         0.007405      0.000011     -0.000680
     11.40813     11.40559      7.72613         0.000001     -0.000022      0.003782
      3.79912      0.00687      7.73574        -0.006051      0.001016      0.003664
      7.60901      0.00688      7.73574         0.006050      0.001016      0.003667
     11.40813      3.80260      7.73501         0.000002     -0.000003      0.000641
      3.79763      3.80271      7.74514        -0.001454      0.000021      0.002501
      7.61050      3.80271      7.74514         0.001452      0.000021      0.002500
      0.00000      7.60809      7.72610        -0.000001      0.000117      0.003781
      3.79913      7.59851      7.73577        -0.006039     -0.000921      0.003657
      7.60900      7.59851      7.73577         0.006041     -0.000921      0.003657
 -----------------------------------------------------------------------------------
    total drift:                                0.000010      0.001366      0.000017


--------------------------------------------------------------------------------------------------------



  FREE ENERGIE OF THE ION-ELECTRON SYSTEM (eV)
  ---------------------------------------------------
  free  energy   TOTEN  =      -862.62404494 eV

  energy  without entropy=     -862.62404494  energy(sigma->0) =     -862.62404494
 


--------------------------------------------------------------------------------------------------------


    POTLOK:  cpu time    0.1774: real time    0.1775


--------------------------------------------------------------------------------------------------------


 writing wavefunctions
     LOOP+:  cpu time  926.2148: real time  926.9372
    4ORBIT:  cpu time    0.0000: real time    0.0000
 


 total charge     
 
# of ion       s       p       d       tot
------------------------------------------
    1        2.227   6.301   1.571  10.099
    2        2.227   6.300   1.568  10.095
    3        2.227   6.300   1.568  10.095
    4        2.228   6.302   1.573  10.103
    5        2.227   6.301   1.571  10.099
    6        2.227   6.301   1.571  10.099
    7        2.227   6.301   1.571  10.099
    8        2.227   6.300   1.568  10.095
    9        2.227   6.300   1.568  10.095
   10        2.227   6.300   1.574  10.101
   11        2.226   6.299   1.586  10.110
   12        2.227   6.300   1.574  10.101
   13        2.227   6.300   1.574  10.101
   14        2.226   6.299   1.586  10.110
   15        2.227   6.300   1.574  10.101
   16        2.226   6.299   1.586  10.110
   17        2.187   6.224   1.720  10.130
   18        2.226   6.299   1.586  10.110
   19        2.227   6.300   1.571  10.098
   20        2.227   6.300   1.570  10.096
   21        2.227   6.300   1.570  10.096
   22        2.227   6.300   1.571  10.098
   23        2.227   6.300   1.570  10.096
   24        2.227   6.300   1.570  10.096
   25        2.229   6.306   1.579  10.114
   26        2.228   6.303   1.574  10.105
   27        2.228   6.303   1.574  10.105
   28        2.227   6.300   1.570  10.096
   29        2.228   6.303   1.574  10.105
   30        2.227   6.300   1.570  10.096
   31        2.227   6.300   1.571  10.098
   32        2.229   6.306   1.579  10.114
   33        2.227   6.300   1.571  10.098
   34        2.227   6.300   1.570  10.096
   35        2.228   6.303   1.574  10.105
   36        2.227   6.300   1.570  10.096
   37        1.595   3.540   0.000   5.135
   38        1.595   3.539   0.000   5.134
   39        1.595   3.539   0.000   5.134
   40        1.595   3.539   0.000   5.133
   41        1.595   3.538   0.000   5.133
   42        1.595   3.538   0.000   5.133
   43        1.595   3.540   0.000   5.135
   44        1.595   3.539   0.000   5.134
   45        1.595   3.539   0.000   5.134
   46        1.595   3.538   0.000   5.133
   47        1.595   3.540   0.000   5.135
   48        1.595   3.538   0.000   5.133
   49        1.595   3.538   0.000   5.133
   50        1.595   3.540   0.000   5.135
   51        1.595   3.538   0.000   5.133
   52        1.595   3.538   0.000   5.133
   53        1.594   3.542   0.000   5.136
   54        1.595   3.538   0.000   5.133
   55        1.595   3.539   0.000   5.134
   56        1.595   3.538   0.000   5.133
   57        1.595   3.538   0.000   5.133
   58        1.595   3.539   0.000   5.134
   59        1.595   3.538   0.000   5.133
   60        1.595   3.538   0.000   5.133
   61        1.595   3.542   0.000   5.137
   62        1.596   3.543   0.000   5.139
   63        1.596   3.543   0.000   5.139
   64        1.595   3.538   0.000   5.133
   65        1.595   3.538   0.000   5.132
   66        1.595   3.538   0.000   5.133
   67        1.595   3.539   0.000   5.134
   68        1.595   3.539   0.000   5.134
   69        1.595   3.539   0.000   5.134
   70        1.595   3.538   0.000   5.133
   71        1.595   3.538   0.000   5.132
   72        1.595   3.538   0.000   5.133
   73        1.595   3.538   0.000   5.133
   74        1.596   3.543   0.000   5.139
   75        1.595   3.538   0.000   5.133
   76        1.595   3.539   0.000   5.134
   77        1.595   3.542   0.000   5.137
   78        1.595   3.539   0.000   5.134
   79        1.595   3.538   0.000   5.133
   80        1.596   3.543   0.000   5.139
   81        1.595   3.538   0.000   5.133
   82        1.595   3.539   0.000   5.134
   83        1.595   3.538   0.000   5.133
   84        1.595   3.538   0.000   5.133
   85        1.595   3.539   0.000   5.134
   86        1.595   3.538   0.000   5.133
   87        1.595   3.538   0.000   5.133
   88        1.595   3.539   0.000   5.134
   89        1.595   3.538   0.000   5.132
   90        1.595   3.538   0.000   5.132
   91        1.595   3.538   0.000   5.133
   92        1.595   3.538   0.000   5.133
   93        1.595   3.538   0.000   5.133
   94        1.595   3.538   0.000   5.133
   95        1.595   3.538   0.000   5.133
   96        1.595   3.538   0.000   5.133
   97        1.595   3.540   0.000   5.135
   98        1.594   3.542   0.000   5.136
   99        1.595   3.540   0.000   5.135
  100        1.595   3.538   0.000   5.133
  101        1.595   3.539   0.000   5.134
  102        1.595   3.539   0.000   5.134
  103        1.595   3.539   0.000   5.133
  104        1.595   3.540   0.000   5.135
  105        1.595   3.540   0.000   5.135
  106        1.595   3.538   0.000   5.133
  107        1.595   3.539   0.000   5.134
  108        1.595   3.539   0.000   5.134
--------------------------------------------------
tot        194.962 481.551  56.782 733.295
 


 magnetization (x)
 
# of ion       s       p       d       tot
------------------------------------------
    1        0.000  -0.000   0.000   0.000
    2        0.000  -0.000   0.000   0.000
    3        0.000  -0.000   0.000   0.000
    4        0.000   0.000   0.000   0.000
    5        0.000  -0.000   0.000   0.000
    6        0.000  -0.000   0.000   0.000
    7        0.000  -0.000   0.000   0.000
    8        0.000  -0.000   0.000   0.000
    9        0.000  -0.000   0.000   0.000
   10        0.000   0.000   0.009   0.009
   11        0.000   0.000   0.037   0.037
   12        0.000   0.000   0.009   0.009
   13        0.000   0.000   0.009   0.009
   14        0.000   0.000   0.037   0.037
   15        0.000   0.000   0.009   0.009
   16        0.000   0.000   0.037   0.037
   17        0.006   0.006   0.737   0.749
   18        0.000   0.000   0.037   0.037
   19        0.000   0.000   0.002   0.002
   20        0.000   0.000   0.002   0.002
   21        0.000   0.000   0.002   0.002
   22        0.000   0.000   0.002   0.002
   23        0.000   0.000   0.002   0.002
   24        0.000   0.000   0.002   0.002
   25        0.000   0.000   0.005   0.005
   26        0.000   0.000   0.010   0.010
   27        0.000   0.000   0.010   0.010
   28        0.000   0.000   0.002   0.002
   29        0.000   0.000   0.010   0.010
   30        0.000   0.000   0.002   0.002
   31        0.000   0.000   0.002   0.002
   32        0.000   0.000   0.005   0.005
   33        0.000   0.000   0.002   0.002
   34        0.000   0.000   0.002   0.002
   35        0.000   0.000   0.010   0.010
   36        0.000   0.000   0.002   0.002
   37       -0.000  -0.000   0.000  -0.000
   38       -0.000  -0.000   0.000  -0.000
   39       -0.000  -0.000   0.000  -0.000
   40       -0.000  -0.000   0.000  -0.000
   41       -0.000  -0.000   0.000  -0.000
   42       -0.000  -0.000   0.000  -0.000
   43       -0.000  -0.000   0.000  -0.000
   44       -0.000  -0.000   0.000  -0.000
   45       -0.000  -0.000   0.000  -0.000
   46       -0.000  -0.000   0.000  -0.000
   47       -0.000  -0.000   0.000  -0.000
   48       -0.000  -0.000   0.000  -0.000
   49       -0.000  -0.000   0.000  -0.000
   50       -0.000  -0.000   0.000  -0.000
   51       -0.000  -0.000   0.000  -0.000
   52       -0.000  -0.001   0.000  -0.001
   53       -0.000  -0.008   0.000  -0.008
   54       -0.000  -0.001   0.000  -0.001
   55       -0.000  -0.001   0.000  -0.001
   56       -0.000  -0.002   0.000  -0.002
   57       -0.000  -0.002   0.000  -0.002
   58       -0.000  -0.001   0.000  -0.001
   59       -0.000  -0.002   0.000  -0.002
   60       -0.000  -0.002   0.000  -0.002
   61       -0.000  -0.002   0.000  -0.002
   62       -0.001  -0.014   0.000  -0.015
   63       -0.001  -0.014   0.000  -0.015
   64        0.000  -0.000   0.000  -0.000
   65       -0.000  -0.000   0.000  -0.000
   66        0.000  -0.000   0.000  -0.000
   67       -0.000  -0.000   0.000  -0.000
   68       -0.000  -0.000   0.000  -0.000
   69       -0.000  -0.000   0.000  -0.000
   70        0.000  -0.000   0.000  -0.000
   71       -0.000  -0.000   0.000  -0.000
   72        0.000  -0.000   0.000  -0.000
   73       -0.000  -0.002   0.000  -0.002
   74       -0.001  -0.014   0.000  -0.015
   75       -0.000  -0.002   0.000  -0.002
   76       -0.000  -0.001   0.000  -0.001
   77       -0.000  -0.002   0.000  -0.002
   78       -0.000  -0.001   0.000  -0.001
   79       -0.000  -0.002   0.000  -0.002
   80       -0.001  -0.014   0.000  -0.015
   81       -0.000  -0.002   0.000  -0.002
   82       -0.000  -0.000   0.000  -0.000
   83        0.000  -0.000   0.000  -0.000
   84        0.000  -0.000   0.000  -0.000
   85       -0.000  -0.000   0.000  -0.000
   86        0.000  -0.000   0.000  -0.000
   87        0.000  -0.000   0.000  -0.000
   88       -0.000  -0.000   0.000  -0.000
   89       -0.000  -0.000   0.000  -0.000
   90       -0.000  -0.000   0.000  -0.000
   91       -0.000  -0.000   0.000  -0.000
   92       -0.000  -0.001   0.000  -0.001
   93       -0.000  -0.000   0.000  -0.000
   94       -0.000  -0.000   0.000  -0.000
   95       -0.000  -0.001   0.000  -0.001
   96       -0.000  -0.000   0.000  -0.000
   97       -0.000  -0.000   0.000  -0.000
   98       -0.000  -0.008   0.000  -0.008
   99       -0.000  -0.000   0.000  -0.000
  100       -0.000  -0.000   0.000  -0.000
  101       -0.000  -0.000   0.000  -0.000
  102       -0.000  -0.000   0.000  -0.000
  103       -0.000  -0.000   0.000  -0.000
  104       -0.000  -0.000   0.000  -0.000
  105       -0.000  -0.000   0.000  -0.000
  106       -0.000  -0.000   0.000  -0.000
  107       -0.000  -0.000   0.000  -0.000
  108       -0.000  -0.000   0.000  -0.000
--------------------------------------------------
tot          0.002  -0.097   0.992   0.897
 
 BZINTS: Fermi energy:  5.839446;865.000000 electrons
         Band energy:***********;  BLOECHL correction:  0.000000

 total amount of memory used by VASP MPI-rank0   121301. kBytes
=======================================================================

   base      :      30000. kBytes
   nonl-proj :       4314. kBytes
   fftplans  :       3336. kBytes
   grid      :       8284. kBytes
   one-center:        155. kBytes
   wavefun   :      75212. kBytes
 
  
  
 General timing and accounting informations for this job:
 ========================================================
  
                  Total CPU time used (sec):      972.355
                            User time (sec):      963.346
                          System time (sec):        9.010
                         Elapsed time (sec):      973.663
  
                   Maximum memory used (kb):      256056.
                   Average memory used (kb):           0.
  
                          Minor page faults:        35073
                          Major page faults:            0
                 Voluntary context switches:           67
