 vasp.5.4.4.18Apr17-6-g9f103f2a35 (build Apr 16 2019 21:13:15) complex          
  
 executed on             OCC_CTRL date 2019.04.22  08:24:58
 running on   44 total cores
 distrk:  each k-point on   44 cores,    1 groups
 distr:  one band on NCORES_PER_BAND=  22 cores,    2 groups


--------------------------------------------------------------------------------------------------------


 INCAR:
 POTCAR:    PAW_PBE Ti_sv 26Sep2005               
 POTCAR:    PAW_PBE O 08Apr2002                   

 ----------------------------------------------------------------------------- 
|                                                                             |
|           W    W    AA    RRRRR   N    N  II  N    N   GGGG   !!!           |
|           W    W   A  A   R    R  NN   N  II  NN   N  G    G  !!!           |
|           W    W  A    A  R    R  N N  N  II  N N  N  G       !!!           |
|           W WW W  AAAAAA  RRRRR   N  N N  II  N  N N  G  GGG   !            |
|           WW  WW  A    A  R   R   N   NN  II  N   NN  G    G                |
|           W    W  A    A  R    R  N    N  II  N    N   GGGG   !!!           |
|                                                                             |
|      For optimal performance we recommend to set                            |
|        NCORE= 4 - approx SQRT( number of cores)                             |
|      NCORE specifies how many cores store one orbital (NPAR=cpu/NCORE).     |
|      This setting can  greatly improve the performance of VASP for DFT.     |
|      The default,   NCORE=1            might be grossly inefficient         |
|      on modern multi-core architectures or massively parallel machines.     |
|      Do your own testing !!!!                                               |
|      Unfortunately you need to use the default for GW and RPA calculations. |
|      (for HF NCORE is supported but not extensively tested yet)             |
|                                                                             |
 ----------------------------------------------------------------------------- 

 POTCAR:    PAW_PBE Ti_sv 26Sep2005               
  local pseudopotential read in
  partial core-charges read in
  partial kinetic energy density read in
  atomic valenz-charges read in
  non local Contribution for L=           0  read in
    real space projection operators read in
  non local Contribution for L=           0  read in
    real space projection operators read in
  non local Contribution for L=           1  read in
    real space projection operators read in
  non local Contribution for L=           1  read in
    real space projection operators read in
  non local Contribution for L=           2  read in
    real space projection operators read in
  non local Contribution for L=           2  read in
    real space projection operators read in
    PAW grid and wavefunctions read in
 
   number of l-projection  operators is LMAX  =           6
   number of lm-projection operators is LMMAX =          18
 
 POTCAR:    PAW_PBE O 08Apr2002                   
  local pseudopotential read in
  partial core-charges read in
  partial kinetic energy density read in
  kinetic energy density of atom read in
  atomic valenz-charges read in
  non local Contribution for L=           0  read in
    real space projection operators read in
  non local Contribution for L=           0  read in
    real space projection operators read in
  non local Contribution for L=           1  read in
    real space projection operators read in
  non local Contribution for L=           1  read in
    real space projection operators read in
    PAW grid and wavefunctions read in
 
   number of l-projection  operators is LMAX  =           4
   number of lm-projection operators is LMMAX =           8
 

 ----------------------------------------------------------------------------- 
|                                                                             |
|  ADVICE TO THIS USER RUNNING 'VASP/VAMP'   (HEAR YOUR MASTER'S VOICE ...):  |
|                                                                             |
|      You have a (more or less) 'large supercell' and for larger cells       |
|      it might be more efficient to use real space projection opertators     |
|      So try LREAL= Auto  in the INCAR   file.                               |
|      Mind:          For very  accurate calculation you might also keep the  |
|      reciprocal projection scheme          (i.e. LREAL=.FALSE.)             |
|                                                                             |
 ----------------------------------------------------------------------------- 

  PAW_PBE Ti_sv 26Sep2005               :
 energy of atom  1       EATOM=-1588.0892
 kinetic energy error for atom=    0.0139 (will be added to EATOM!!)
  PAW_PBE O 08Apr2002                   :
 energy of atom  2       EATOM= -432.3788
 kinetic energy error for atom=    0.1156 (will be added to EATOM!!)
 
  
 Occupation matrix control coded by Prof. Graeme Watson 
 at Trinity College Dublin
  
 Occupation set for the following atoms 
  
 
 POSCAR: generated by phonopy                    
  positions in direct lattice
  velocities in cartesian coordinates
 exchange correlation table for  LEXCH =        8
   RHO(1)=    0.500       N(1)  =     2000
   RHO(2)=  100.500       N(2)  =     4000
 


--------------------------------------------------------------------------------------------------------


 ion  position               nearest neighbor table
   1  1.000  0.000  0.999-  64 1.94  66 1.94  88 1.95  82 1.95  37 2.01 100 2.01
   2  0.333  1.000  0.000-  89 1.94  65 1.94  64 1.95  83 1.96  38 2.01 101 2.01
   3  0.667  1.000  0.000-  90 1.94  65 1.94  66 1.95  84 1.96  39 2.01 102 2.01
   4  1.000  0.333  1.000-  85 1.94  82 1.94  69 1.95  67 1.95 103 2.01  40 2.01
   5  0.333  0.333  0.001-  86 1.94  83 1.94  68 1.95  67 1.95 104 2.01  41 2.02
   6  0.667  0.333  0.001-  87 1.94  84 1.94  68 1.95  69 1.95 105 2.01  42 2.02
   7  1.000  0.667  0.999-  72 1.94  70 1.94  88 1.95  85 1.95  43 2.01 106 2.01
   8  0.333  0.667  0.000-  89 1.94  71 1.94  70 1.95  86 1.96  44 2.01 107 2.01
   9  0.667  0.667  0.000-  90 1.94  71 1.94  72 1.95  87 1.96  45 2.01 108 2.01
  10  0.167  0.167  0.500-  73 1.94  56 1.94  76 1.95  55 1.95  46 2.01  91 2.01
  11  0.500  0.166  0.503-  74 1.92  77 1.95  56 1.96  57 1.96  47 2.01  92 2.03
  12  0.833  0.167  0.500-  75 1.94  57 1.94  78 1.95  55 1.95  48 2.01  93 2.01
  13  0.167  0.500  0.500-  79 1.94  59 1.94  58 1.95  76 1.95  49 2.01  94 2.01
  14  0.500  0.501  0.503-  80 1.92  77 1.95  59 1.96  60 1.96  50 2.01  95 2.03
  15  0.833  0.500  0.500-  81 1.94  60 1.94  58 1.95  78 1.95  51 2.01  96 2.01
  16  0.166  0.833  0.498-  62 1.89  61 1.94  73 1.96  79 1.96  52 2.03  97 2.03
  17  0.500  0.833  0.497-  80 1.99  74 1.99  62 2.02  63 2.02  98 2.08  53 2.16
  18  0.834  0.833  0.498-  63 1.89  61 1.94  75 1.96  81 1.96  54 2.03  99 2.03
  19  0.000  0.167  0.250-  37 1.94  91 1.95  93 1.95  40 1.95  55 2.01  82 2.02
  20  0.334  0.166  0.250-  38 1.94  92 1.94  41 1.95  91 1.95  83 2.01  56 2.01
  21  0.666  0.166  0.250-  39 1.94  92 1.94  42 1.95  93 1.95  84 2.01  57 2.01
  22  0.000  0.500  0.250-  43 1.94  96 1.95  94 1.95  40 1.95  58 2.01  85 2.02
  23  0.334  0.500  0.250-  44 1.94  95 1.94  41 1.95  94 1.95  86 2.01  59 2.01
  24  0.666  0.500  0.250-  45 1.94  95 1.94  42 1.95  96 1.95  87 2.01  60 2.01
  25  0.000  0.833  0.248-  99 1.93  97 1.93  37 1.95  43 1.95  61 2.00  88 2.02
  26  0.334  0.833  0.251-  98 1.93  38 1.96  44 1.96  97 1.96  62 1.97  89 2.04
  27  0.666  0.833  0.251-  98 1.93  39 1.96  45 1.96  99 1.96  63 1.97  90 2.04
  28  0.167  1.000  0.750- 101 1.94  52 1.94 100 1.95  46 1.95  73 2.01  64 2.01
  29  0.500  0.998  0.750-  53 1.90 102 1.95 101 1.95  47 1.98  74 1.99  65 2.03
  30  0.833  1.000  0.750- 102 1.94  54 1.94 100 1.95  48 1.95  75 2.01  66 2.01
  31  0.167  0.333  0.750- 104 1.94  49 1.95  46 1.95 103 1.95  76 2.01  67 2.02
  32  0.500  0.333  0.750-  50 1.94  47 1.94 104 1.95 105 1.95  77 2.01  68 2.02
  33  0.833  0.333  0.750- 105 1.94  51 1.95  48 1.95 103 1.95  78 2.01  69 2.02
  34  0.167  0.667  0.750- 107 1.94  52 1.94 106 1.95  49 1.95  79 2.01  70 2.01
  35  0.500  0.669  0.750-  53 1.90 108 1.95 107 1.95  50 1.98  80 1.99  71 2.03
  36  0.833  0.667  0.750- 108 1.94  54 1.94 106 1.95  51 1.95  81 2.01  72 2.01
  37  0.000  0.001  0.205-  19 1.94  25 1.95   1 2.01
  38  0.332  0.000  0.206-  20 1.94  26 1.96   2 2.01
  39  0.668  0.000  0.206-  21 1.94  27 1.96   3 2.01
  40  0.000  0.333  0.206-  19 1.95  22 1.95   4 2.01
  41  0.334  0.333  0.207-  20 1.95  23 1.95   5 2.02
  42  0.666  0.333  0.207-  21 1.95  24 1.95   6 2.02
  43  0.000  0.666  0.205-  22 1.94  25 1.95   7 2.01
  44  0.332  0.666  0.206-  23 1.94  26 1.96   8 2.01
  45  0.668  0.666  0.206-  24 1.94  27 1.96   9 2.01
  46  0.166  0.167  0.707-  31 1.95  28 1.95  10 2.01
  47  0.500  0.167  0.709-  32 1.94  29 1.98  11 2.01
  48  0.834  0.167  0.707-  33 1.95  30 1.95  12 2.01
  49  0.166  0.500  0.707-  31 1.95  34 1.95  13 2.01
  50  0.500  0.499  0.709-  32 1.94  35 1.98  14 2.01
  51  0.834  0.500  0.707-  33 1.95  36 1.95  15 2.01
  52  0.167  0.833  0.706-  34 1.94  28 1.94  16 2.03
  53  0.500  0.833  0.719-  35 1.90  29 1.90  17 2.16
  54  0.833  0.833  0.706-  36 1.94  30 1.94  18 2.03
  55  0.000  0.168  0.456-  12 1.95  10 1.95  19 2.01
  56  0.333  0.167  0.457-  10 1.94  11 1.96  20 2.01
  57  0.667  0.167  0.457-  12 1.94  11 1.96  21 2.01
  58  0.000  0.499  0.456-  13 1.95  15 1.95  22 2.01
  59  0.333  0.500  0.457-  13 1.94  14 1.96  23 2.01
  60  0.667  0.500  0.457-  15 1.94  14 1.96  24 2.01
  61  1.000  0.833  0.454-  18 1.94  16 1.94  25 2.00
  62  0.327  0.833  0.453-  16 1.89  26 1.97  17 2.02
  63  0.673  0.833  0.453-  18 1.89  27 1.97  17 2.02
  64  0.166  0.001  0.956-   1 1.94   2 1.95  28 2.01
  65  0.500  0.001  0.958-   3 1.94   2 1.94  29 2.03
  66  0.834  0.001  0.956-   1 1.94   3 1.95  30 2.01
  67  0.167  0.333  0.957-   4 1.95   5 1.95  31 2.02
  68  0.500  0.333  0.958-   6 1.95   5 1.95  32 2.02
  69  0.833  0.333  0.957-   4 1.95   6 1.95  33 2.02
  70  0.166  0.666  0.956-   7 1.94   8 1.95  34 2.01
  71  0.500  0.665  0.958-   9 1.94   8 1.94  35 2.03
  72  0.834  0.666  0.956-   7 1.94   9 1.95  36 2.01
  73  0.165  0.001  0.543-  10 1.94  16 1.96  28 2.01
  74  0.500  0.002  0.546-  11 1.92  17 1.99  29 1.99
  75  0.835  0.001  0.543-  12 1.94  18 1.96  30 2.01
  76  0.167  0.333  0.544-  10 1.95  13 1.95  31 2.01
  77  0.500  0.333  0.545-  11 1.95  14 1.95  32 2.01
  78  0.833  0.333  0.544-  12 1.95  15 1.95  33 2.01
  79  0.165  0.666  0.543-  13 1.94  16 1.96  34 2.01
  80  0.500  0.664  0.546-  14 1.92  17 1.99  35 1.99
  81  0.835  0.666  0.543-  15 1.94  18 1.96  36 2.01
  82  1.000  0.167  0.043-   4 1.94   1 1.95  19 2.02
  83  0.333  0.167  0.044-   5 1.94   2 1.96  20 2.01
  84  0.667  0.167  0.044-   6 1.94   3 1.96  21 2.01
  85  1.000  0.500  0.043-   4 1.94   7 1.95  22 2.02
  86  0.333  0.500  0.044-   5 1.94   8 1.96  23 2.01
  87  0.667  0.500  0.044-   6 1.94   9 1.96  24 2.01
  88  1.000  0.833  0.041-   7 1.95   1 1.95  25 2.02
  89  0.332  0.833  0.041-   8 1.94   2 1.94  26 2.04
  90  0.668  0.833  0.041-   9 1.94   3 1.94  27 2.04
  91  0.167  0.167  0.293-  19 1.95  20 1.95  10 2.01
  92  0.500  0.166  0.294-  20 1.94  21 1.94  11 2.03
  93  0.833  0.167  0.293-  19 1.95  21 1.95  12 2.01
  94  0.167  0.500  0.293-  22 1.95  23 1.95  13 2.01
  95  0.500  0.501  0.294-  23 1.94  24 1.94  14 2.03
  96  0.833  0.500  0.293-  22 1.95  24 1.95  15 2.01
  97  0.165  0.833  0.290-  25 1.93  26 1.96  16 2.03
  98  0.500  0.833  0.284-  26 1.93  27 1.93  17 2.08
  99  0.835  0.833  0.290-  25 1.93  27 1.96  18 2.03
 100  0.000  0.000  0.793-  28 1.95  30 1.95   1 2.01
 101  0.333  0.002  0.794-  28 1.94  29 1.95   2 2.01
 102  0.667  0.002  0.794-  30 1.94  29 1.95   3 2.01
 103  1.000  0.333  0.793-  33 1.95  31 1.95   4 2.01
 104  0.333  0.333  0.794-  31 1.94  32 1.95   5 2.01
 105  0.667  0.333  0.794-  33 1.94  32 1.95   6 2.01
 106  1.000  0.667  0.793-  34 1.95  36 1.95   7 2.01
 107  0.333  0.665  0.794-  34 1.94  35 1.95   8 2.01
 108  0.667  0.665  0.794-  36 1.94  35 1.95   9 2.01
 

IMPORTANT INFORMATION: All symmetrisations will be switched off!
NOSYMM: (Re-)initialisation of all symmetry stuff for point group C_1.

 
 
 KPOINTS: TiO2                                    

Automatic generation of k-mesh.
Space group operators:
 irot       det(A)        alpha          n_x          n_y          n_z        tau_x        tau_y        tau_z
    1     1.000000     0.000000     1.000000     0.000000     0.000000     0.000000     0.000000     0.000000
 
 Subroutine IBZKPT returns following result:
 ===========================================
 
 Found      8 irreducible k-points:
 
 Following reciprocal coordinates:
            Coordinates               Weight
  0.000000  0.000000  0.000000      1.000000
  0.500000  0.000000  0.000000      1.000000
  0.000000  0.500000  0.000000      1.000000
  0.500000  0.500000  0.000000      1.000000
  0.000000  0.000000  0.500000      1.000000
  0.500000  0.000000  0.500000      1.000000
  0.000000  0.500000  0.500000      1.000000
  0.500000  0.500000  0.500000      1.000000
 
 Following cartesian coordinates:
            Coordinates               Weight
  0.000000  0.000000  0.000000      1.000000
  0.043828  0.000000  0.000000      1.000000
  0.000000  0.043828  0.000000      1.000000
  0.043828  0.043828  0.000000      1.000000
  0.000000  0.000000  0.051294      1.000000
  0.043828  0.000000  0.051294      1.000000
  0.000000  0.043828  0.051294      1.000000
  0.043828  0.043828  0.051294      1.000000
 
 TETIRR: Found     24 inequivalent tetrahedra from       48


--------------------------------------------------------------------------------------------------------




 Dimension of arrays:
   k-points           NKPTS =      8   k-points in BZ     NKDIM =      8   number of bands    NBANDS=    520
   number of dos      NEDOS =   3000   number of ions     NIONS =    108
   non local maximal  LDIM  =      6   non local SUM 2l+1 LMDIM =     18
   total plane-waves  NPLWV = 409600
   max r-space proj   IRMAX =      1   max aug-charges    IRDMAX=  12733
   dimension x,y,z NGX =    80 NGY =   80 NGZ =   64
   dimension x,y,z NGXF=   160 NGYF=  160 NGZF=  128
   support grid    NGXF=   160 NGYF=  160 NGZF=  128
   ions per type =              36  72
   NGX,Y,Z   is equivalent  to a cutoff of  11.66, 11.66, 10.92 a.u.
   NGXF,Y,Z  is equivalent  to a cutoff of  23.32, 23.32, 21.83 a.u.

 SYSTEM =  TiO2                                    
 POSCAR =  generated by phonopy                    

 Startparameter for this run:
   NWRITE =      1    write-flag & timer
   PREC   = a         normal or accurate (medium, high low for compatibility)
   ISTART =      1    job   : 0-new  1-cont  2-samecut
   ICHARG =      0    charge: 1-file 2-atom 10-const
   ISPIN  =      2    spin polarized calculation?
   LNONCOLLINEAR =      F non collinear calculations
   LSORBIT =      F    spin-orbit coupling
   INIWAV =      1    electr: 0-lowe 1-rand  2-diag
   LASPH  =      F    aspherical Exc in radial PAW
   METAGGA=      F    non-selfconsistent MetaGGA calc.

 Electronic Relaxation 1
   ENCUT  =  400.0 eV  29.40 Ry    5.42 a.u.  18.60 18.60 15.90*2*pi/ulx,y,z
   ENINI  =  400.0     initial cutoff
   ENAUG  =  605.4 eV  augmentation charge cutoff
   NELM   =   2000;   NELMIN=  5; NELMDL=  0     # of ELM steps 
   EDIFF  = 0.1E-04   stopping-criterion for ELM
   LREAL  =      F    real-space projection
   NLSPLINE    = F    spline interpolate recip. space projectors
   LCOMPAT=      F    compatible to vasp.4.4
   GGA_COMPAT  = T    GGA compatible to vasp.4.4-vasp.4.6
   LMAXPAW     = -100 max onsite density
   LMAXMIX     =    4 max onsite mixed and CHGCAR
   VOSKOWN=      0    Vosko Wilk Nusair interpolation
   ROPT   =    0.00000   0.00000
 Ionic relaxation
   EDIFFG = -.1E-01   stopping-criterion for IOM
   NSW    =      0    number of steps for IOM
   NBLOCK =      1;   KBLOCK =      1    inner block; outer block 
   IBRION =     -1    ionic relax: 0-MD 1-quasi-New 2-CG
   NFREE  =      0    steps in history (QN), initial steepest desc. (CG)
   ISIF   =      2    stress and relaxation
   IWAVPR =     10    prediction:  0-non 1-charg 2-wave 3-comb
   ISYM   =      0    0-nonsym 1-usesym 2-fastsym
   LCORR  =      T    Harris-Foulkes like correction to forces

   POTIM  = 0.5000    time-step for ionic-motion
   TEIN   =    0.0    initial temperature
   TEBEG  =    0.0;   TEEND  =   0.0 temperature during run
   SMASS  =  -3.00    Nose mass-parameter (am)
   estimated Nose-frequenzy (Omega)   =  0.10E-29 period in steps =****** mass=  -0.297E-26a.u.
   SCALEE = 1.0000    scale energy and forces
   NPACO  =    256;   APACO  = 16.0  distance and # of slots for P.C.
   PSTRESS=    0.0 pullay stress

  Mass of Ions in am
   POMASS =  47.88 16.00
  Ionic Valenz
   ZVAL   =  12.00  6.00
  Atomic Wigner-Seitz radii
   RWIGS  =  -1.00 -1.00
  virtual crystal weights 
   VCA    =   1.00  1.00
   NELECT =     865.0000    total number of electrons
   NUPDOWN=      -1.0000    fix difference up-down

 DOS related values:
   EMIN   = -15.00;   EMAX   = 15.00  energy-range for DOS
   EFERMI =   0.00
   ISMEAR =    -5;   SIGMA  =   0.20  broadening in eV -4-tet -1-fermi 0-gaus

 Electronic relaxation 2 (details)
   IALGO  =     38    algorithm
   LDIAG  =      T    sub-space diagonalisation (order eigenvalues)
   LSUBROT=      F    optimize rotation matrix (better conditioning)
   TURBO    =      0    0=normal 1=particle mesh
   IRESTART =      0    0=no restart 2=restart with 2 vectors
   NREBOOT  =      0    no. of reboots
   NMIN     =      0    reboot dimension
   EREF     =   0.00    reference energy to select bands
   IMIX   =      4    mixing-type and parameters
     AMIX     =   0.40;   BMIX     =  1.00
     AMIX_MAG =   1.60;   BMIX_MAG =  1.00
     AMIN     =   0.10
     WC   =   100.;   INIMIX=   1;  MIXPRE=   1;  MAXMIX= -45

 Intra band minimization:
   WEIMIN = 0.0000     energy-eigenvalue tresh-hold
   EBREAK =  0.48E-08  absolut break condition
   DEPER  =   0.30     relativ break condition  

   TIME   =   0.40     timestep for ELM

  volume/ion in A,a.u.               =      11.75        79.27
  Fermi-wavevector in a.u.,A,eV,Ry     =   1.440906  2.722918 28.248568  2.076211
  Thomas-Fermi vector in A             =   2.559598
 
 Write flags
   LWAVE        =      T    write WAVECAR
   LDOWNSAMPLE  =      F    k-point downsampling of WAVECAR
   LCHARG       =      T    write CHGCAR
   LVTOT        =      F    write LOCPOT, total local potential
   LVHAR        =      F    write LOCPOT, Hartree potential only
   LELF         =      F    write electronic localiz. function (ELF)
   LORBIT       =     11    0 simple, 1 ext, 2 COOP (PROOUT), +10 PAW based schemes


 Dipole corrections
   LMONO  =      F    monopole corrections only (constant potential shift)
   LDIPOL =      F    correct potential (dipole corrections)
   IDIPOL =      0    1-x, 2-y, 3-z, 4-all directions 
   EPSILON=  1.0000000 bulk dielectric constant

 LDA+U is selected, type is set to LDAUTYPE =  2
   angular momentum for each species LDAUL =     2    2
   U (eV)           for each species LDAUU =   4.2  0.0
   J (eV)           for each species LDAUJ =   0.0  0.0
 Exchange correlation treatment:
   GGA     =    --    GGA type
   LEXCH   =     8    internal setting for exchange type
   VOSKOWN=      0    Vosko Wilk Nusair interpolation
   LHFCALC =     F    Hartree Fock is set to
   LHFONE  =     F    Hartree Fock one center treatment
   AEXX    =    0.0000 exact exchange contribution

 Linear response parameters
   LEPSILON=     F    determine dielectric tensor
   LRPA    =     F    only Hartree local field effects (RPA)
   LNABLA  =     F    use nabla operator in PAW spheres
   LVEL    =     F    velocity operator in full k-point grid
   LINTERFAST=   F  fast interpolation
   KINTER  =     0    interpolate to denser k-point grid
   CSHIFT  =0.1000    complex shift for real part using Kramers Kronig
   OMEGAMAX=  -1.0    maximum frequency
   DEG_THRESHOLD= 0.2000000E-02 threshold for treating states as degnerate
   RTIME   =   -0.100 relaxation time in fs
  (WPLASMAI=    0.000 imaginary part of plasma frequency in eV, 0.658/RTIME)
   DFIELD  = 0.0000000 0.0000000 0.0000000 field for delta impulse in time
 
 Orbital magnetization related:
   ORBITALMAG=     F  switch on orbital magnetization
   LCHIMAG   =     F  perturbation theory with respect to B field
   DQ        =  0.001000  dq finite difference perturbation B field
   LLRAUG    =     F  two centre corrections for induced B field



--------------------------------------------------------------------------------------------------------


 Static calculation
 charge density and potential will be updated during run
 spin polarized calculation
 Variant of blocked Davidson
 Davidson routine will perform the subspace rotation
 perform sub-space diagonalisation
    after iterative eigenvector-optimisation
 modified Broyden-mixing scheme, WC =      100.0
 initial mixing is a Kerker type mixing with AMIX =  0.4000 and BMIX =      1.0000
 Hartree-type preconditioning will be used
 using additional bands           87
 reciprocal scheme for non local part
 use partial core corrections
 calculate Harris-corrections to forces 
   (improved forces if not selfconsistent)
 use gradient corrections 
 use of overlap-Matrix (Vanderbilt PP)
 Fermi weights with tetrahedron method with Bloechl corrections


--------------------------------------------------------------------------------------------------------


  energy-cutoff  :      400.00
  volume of cell :     1268.63
      direct lattice vectors                 reciprocal lattice vectors
    11.408128739  0.000000000  0.000000000     0.087656795  0.000000000  0.000000000
     0.000000000 11.408128739  0.000000000     0.000000000  0.087656795  0.000000000
     0.000000000  0.000000000  9.747752190     0.000000000  0.000000000  0.102587754

  length of vectors
    11.408128739 11.408128739  9.747752190     0.087656795  0.087656795  0.102587754


 
 old parameters found on file WAVECAR:
  energy-cutoff  :      400.00
  volume of cell :     1268.63
      direct lattice vectors                 reciprocal lattice vectors
    11.408128739  0.000000000  0.000000000     0.087656795  0.000000000  0.000000000
     0.000000000 11.408128739  0.000000000     0.000000000  0.087656795  0.000000000
     0.000000000  0.000000000  9.747752190     0.000000000  0.000000000  0.102587754

  length of vectors

 
 k-points in units of 2pi/SCALE and weight: TiO2                                    
   0.00000000  0.00000000  0.00000000       0.125
   0.04382840  0.00000000  0.00000000       0.125
   0.00000000  0.04382840  0.00000000       0.125
   0.04382840  0.04382840  0.00000000       0.125
   0.00000000  0.00000000  0.05129388       0.125
   0.04382840  0.00000000  0.05129388       0.125
   0.00000000  0.04382840  0.05129388       0.125
   0.04382840  0.04382840  0.05129388       0.125
 
 k-points in reciprocal lattice and weights: TiO2                                    
   0.00000000  0.00000000  0.00000000       0.125
   0.50000000  0.00000000  0.00000000       0.125
   0.00000000  0.50000000  0.00000000       0.125
   0.50000000  0.50000000  0.00000000       0.125
   0.00000000  0.00000000  0.50000000       0.125
   0.50000000  0.00000000  0.50000000       0.125
   0.00000000  0.50000000  0.50000000       0.125
   0.50000000  0.50000000  0.50000000       0.125
 
 position of ions in fractional coordinates (direct lattice) 
   1.00000000  0.00011902  0.99934694
   0.33344816  0.99973289  0.00007111
   0.66655184  0.99973290  0.00007106
   0.99999999  0.33333563  0.99989758
   0.33343034  0.33333385  0.00068813
   0.66656967  0.33333385  0.00068810
   0.99999999  0.66654891  0.99934484
   0.33344657  0.66693031  0.00007215
   0.66655343  0.66693030  0.00007211
   0.16666342  0.16662262  0.50011816
   0.50000000  0.16611854  0.50253293
   0.83333658  0.16662262  0.50011813
   0.16666246  0.50004787  0.50011791
   0.50000000  0.50054595  0.50253188
   0.83333754  0.50004787  0.50011788
   0.16615899  0.83333530  0.49826923
   0.50000002  0.83332970  0.49698410
   0.83384100  0.83333530  0.49826914
   0.00000000  0.16659863  0.24981012
   0.33370133  0.16638072  0.25044329
   0.66629867  0.16638072  0.25044327
   0.00000000  0.50006866  0.24980945
   0.33370143  0.50028702  0.25044452
   0.66629857  0.50028702  0.25044451
   0.00000001  0.83333455  0.24832631
   0.33357262  0.83333494  0.25087045
   0.66642738  0.83333494  0.25087035
   0.16689506  0.99975650  0.74975392
   0.49999999  0.99788494  0.75005014
   0.83310495  0.99975650  0.74975387
   0.16685222  0.33333464  0.75024882
   0.49999999  0.33333387  0.75049275
   0.83314778  0.33333465  0.75024879
   0.16689633  0.66690923  0.74975425
   0.49999999  0.66877320  0.75005434
   0.83310366  0.66690924  0.74975421
   0.00000002  0.00066080  0.20546607
   0.33211917  0.00042026  0.20629322
   0.66788082  0.00042026  0.20629315
   0.00000000  0.33333312  0.20648801
   0.33382691  0.33333227  0.20743176
   0.66617309  0.33333227  0.20743175
   0.00000002  0.66600778  0.20546487
   0.33211499  0.66624709  0.20629525
   0.66788500  0.66624708  0.20629518
   0.16637254  0.16689344  0.70675376
   0.49999999  0.16745763  0.70867730
   0.83362747  0.16689344  0.70675371
   0.16636624  0.49977552  0.70675564
   0.49999999  0.49920852  0.70867573
   0.83363377  0.49977552  0.70675559
   0.16717597  0.83333250  0.70649842
   0.50000000  0.83332816  0.71858806
   0.83282401  0.83333250  0.70649839
   0.00000000  0.16757083  0.45624370
   0.33307076  0.16707319  0.45708413
   0.66692924  0.16707320  0.45708410
   0.00000000  0.49911893  0.45624336
   0.33307049  0.49960804  0.45708346
   0.66692950  0.49960803  0.45708343
   0.99999999  0.83332165  0.45384167
   0.32718231  0.83333888  0.45283502
   0.67281770  0.83333886  0.45283486
   0.16636445  0.00076909  0.95639082
   0.50000000  0.00123539  0.95849243
   0.83363554  0.00076909  0.95639077
   0.16657471  0.33332835  0.95696376
   0.50000000  0.33332731  0.95786451
   0.83342529  0.33332835  0.95696373
   0.16636362  0.66589505  0.95638819
   0.50000000  0.66541741  0.95849582
   0.83363637  0.66589505  0.95638814
   0.16511101  0.00051503  0.54346837
   0.50000001  0.00234161  0.54600641
   0.83488897  0.00051503  0.54346827
   0.16654347  0.33333492  0.54374955
   0.50000000  0.33333172  0.54451593
   0.83345653  0.33333492  0.54374952
   0.16512168  0.66615408  0.54347114
   0.50000002  0.66431939  0.54600660
   0.83487830  0.66615409  0.54347104
   0.99999999  0.16699754  0.04298335
   0.33282265  0.16700595  0.04391939
   0.66717736  0.16700596  0.04391935
   0.99999999  0.49967263  0.04298169
   0.33281861  0.49966134  0.04392053
   0.66718140  0.49966133  0.04392049
   1.00000000  0.83333245  0.04118291
   0.33192141  0.83333073  0.04124238
   0.66807859  0.83333073  0.04124229
   0.16661216  0.16703127  0.29346356
   0.50000000  0.16576412  0.29412776
   0.83338784  0.16703126  0.29346353
   0.16661183  0.49964252  0.29346277
   0.50000000  0.50089471  0.29412568
   0.83338818  0.49964253  0.29346274
   0.16511216  0.83334275  0.28952539
   0.50000000  0.83332342  0.28388616
   0.83488785  0.83334275  0.28952527
   0.00000000  0.00000721  0.79281931
   0.33281565  0.00171473  0.79381462
   0.66718435  0.00171475  0.79381456
   1.00000000  0.33332492  0.79345770
   0.33302979  0.33333185  0.79420345
   0.66697020  0.33333185  0.79420341
   1.00000000  0.66667090  0.79281782
   0.33281639  0.66493538  0.79381744
   0.66718360  0.66493536  0.79381739
 
 position of ions in cartesian coordinates  (Angst):
  11.40812871  0.00135777  9.74138636
   3.80401952 11.40508148  0.00069316
   7.60410925 11.40508164  0.00069272
  11.40812867  3.80273580  9.74675379
   3.80381622  3.80271542  0.00670769
   7.60431259  3.80271543  0.00670746
  11.40812863  7.60407580  9.74136582
   3.80400140  7.60842686  0.00070332
   7.60412735  7.60842673  0.00070287
   1.90131773  1.90085233  4.87502787
   5.70406439  1.89510170  4.89856649
   9.50681102  1.90085233  4.87502759
   1.90130683  5.70461044  4.87502544
   5.70406440  5.71029267  4.89855628
   9.50682190  5.70461044  4.87502516
   1.89556317  9.50679642  4.85700496
   5.70406456  9.50673248  4.84447787
   9.51256553  9.50679641  4.85700406
   0.00000006  1.90057866  2.43508711
   3.80690769  1.89809263  2.44125913
   7.60122104  1.89809269  2.44125896
   0.00000005  5.70484763  2.43508065
   3.80690883  5.70733876  2.44127116
   7.60121990  5.70733877  2.44127100
   0.00000016  9.50678784  2.42062338
   3.80543934  9.50679228  2.44542300
   7.60268937  9.50679229  2.44542198
   1.90396028 11.40535089  7.30841537
   5.70406431 11.38399990  7.31130285
   9.50416851 11.40535083  7.30841490
   1.90347165  3.80272453  7.31323957
   5.70406431  3.80271571  7.31561739
   9.50465712  3.80272455  7.31323927
   1.90397485  7.60818635  7.30841860
   5.70406431  7.62945078  7.31134387
   9.50415385  7.60818646  7.30841820
   0.00000020  0.00753850  2.00283231
   3.78885828  0.00479441  2.01089517
   7.61927036  0.00479443  2.01089450
   0.00000002  3.80270714  2.01279400
   3.80834040  3.80269743  2.02199338
   7.59978836  3.80269742  2.02199333
   0.00000022  7.59790251  2.00282065
   3.78881051  7.60063254  2.01091496
   7.61931807  7.60063250  2.01091425
   1.89799935  1.90394189  6.88926047
   5.70406420  1.91037821  6.90801068
   9.51012955  1.90394184  6.88925999
   1.89792750  5.70150344  6.88927883
   5.70406422  5.69503510  6.90799539
   9.51020137  5.70150353  6.88927834
   1.90716502  9.50676439  6.88677152
   5.70406442  9.50671499  7.00461831
   9.50096358  9.50676444  6.88677124
   0.00000003  1.91166963  4.44735054
   3.79971408  1.90599249  4.45554283
   7.60841465  1.90599258  4.45554253
   0.00000003  5.69401306  4.44734717
   3.79971108  5.69959280  4.45553634
   7.60841765  5.69959267  4.45553604
  11.40812868  9.50664061  4.42393616
   3.73253787  9.50683724  4.41412360
   7.67559093  9.50683705  4.41412200
   1.89790711  0.00877388  9.32266074
   5.70406437  0.01409347  9.34314665
   9.51022159  0.00877390  9.32266021
   1.90030576  3.80265274  9.32824561
   5.70406438  3.80264090  9.33702586
   9.50782296  3.80265274  9.32824528
   1.89789764  7.59661646  9.32263512
   5.70406434  7.59116744  9.34317973
   9.51023105  7.59661644  9.32263461
   1.88360766  0.00587557  5.29759501
   5.70406444  0.02671341  5.32233518
   9.52452082  0.00587549  5.29759404
   1.89994931  3.80272767  5.30033586
   5.70406439  3.80269122  5.30780637
   9.50817943  3.80272767  5.30033554
   1.88372942  7.59957152  5.29762196
   5.70406459  7.57864111  5.32233701
   9.52439911  7.59957160  5.29762101
  11.40812864  1.90512940  0.41899101
   3.79688361  1.90522540  0.42811531
   7.61124518  1.90522547  0.42811493
  11.40812863  5.70032973  0.41897483
   3.79683750  5.70020093  0.42812645
   7.61129127  5.70020081  0.42812606
  11.40812874  9.50676390  0.40144078
   3.78660214  9.50674423  0.40202054
   7.62152657  9.50674425  0.40201961
   1.90073300  1.90551421  2.86061003
   5.70406436  1.89105840  2.86708455
   9.50739578  1.90551409  2.86060975
   1.90072917  5.69998617  2.86060233
   5.70406436  5.71427135  2.86706429
   9.50739961  5.69998632  2.86060204
   1.88362081  9.50688137  2.82222175
   5.70406436  9.50666081  2.76725194
   9.52450812  9.50688135  2.82222058
   0.00000000  0.00008220  7.72820620
   3.79680380  0.01956189  7.73790820
   7.61132492  0.01956209  7.73790764
  11.40812872  3.80261354  7.73442908
   3.79924677  3.80269262  7.74169838
   7.60888195  3.80269261  7.74169805
  11.40812872  7.60546741  7.72819159
   3.79681228  7.58566840  7.73793570
   7.61131639  7.58566820  7.73793517
 


--------------------------------------------------------------------------------------------------------


 k-point  1 :   0.0000 0.0000 0.0000  plane waves:   23091
 k-point  2 :   0.5000 0.0000 0.0000  plane waves:   23010
 k-point  3 :   0.0000 0.5000 0.0000  plane waves:   23010
 k-point  4 :   0.5000 0.5000 0.0000  plane waves:   22996
 k-point  5 :   0.0000 0.0000 0.5000  plane waves:   23024
 k-point  6 :   0.5000 0.0000 0.5000  plane waves:   23052
 k-point  7 :   0.0000 0.5000 0.5000  plane waves:   23052
 k-point  8 :   0.5000 0.5000 0.5000  plane waves:   23032

 maximum and minimum number of plane-waves per node :      1074     1020

 maximum number of plane-waves:     23091
 maximum index in each direction: 
   IXMAX=   18   IYMAX=   18   IZMAX=   15
   IXMIN=  -19   IYMIN=  -19   IZMIN=  -16


 parallel 3D FFT for wavefunctions:
    minimum data exchange during FFTs selected (reduces bandwidth)
 parallel 3D FFT for charge:
    minimum data exchange during FFTs selected (reduces bandwidth)


 total amount of memory used by VASP MPI-rank0   121301. kBytes
=======================================================================

   base      :      30000. kBytes
   nonl-proj :       4314. kBytes
   fftplans  :       3336. kBytes
   grid      :       8284. kBytes
   one-center:        155. kBytes
   wavefun   :      75212. kBytes
 
     INWAV:  cpu time   12.6624: real time   12.6652
 Broyden mixing: mesh for mixing (old mesh)
   NGX = 37   NGY = 37   NGZ = 31
  (NGX  =160   NGY  =160   NGZ  =128)
  gives a total of  42439 points

 charge density for first step will be calculated from the start-wavefunctions


--------------------------------------------------------------------------------------------------------


 Maximum index for augmentation-charges          626 (set IRDMAX)


--------------------------------------------------------------------------------------------------------


 initial charge from wavefunction
 First call to EWALD:  gamma=   0.164
 Maximum number of real-space cells 3x 3x 3
 Maximum number of reciprocal cells 3x 3x 3

    FEWALD:  cpu time    0.0034: real time    0.0034


--------------------------------------- Iteration      1(   1)  ---------------------------------------


    POTLOK:  cpu time    0.1619: real time    0.1622
    SETDIJ:  cpu time    0.0235: real time    0.0235
atom =   1  type =  1  l = 2
 
 onsite density matrix
 
spin component  1
 
  0.1061 -0.0000  0.0000 -0.0005 -0.0000
 -0.0000  0.0989  0.0000  0.0000 -0.0004
  0.0000  0.0000  0.2433 -0.0000 -0.0011
 -0.0005  0.0000 -0.0000  0.1007  0.0000
 -0.0000 -0.0004 -0.0011  0.0000  0.2507
 
spin component  2
 
  0.1061  0.0000  0.0000 -0.0005  0.0000
  0.0000  0.0989  0.0000  0.0000 -0.0004
  0.0000  0.0000  0.2433 -0.0000 -0.0011
 -0.0005  0.0000 -0.0000  0.1007  0.0000
  0.0000 -0.0004 -0.0011  0.0000  0.2507
 
 occupancies and eigenvectors
 
  o =  0.0989  v =  0.0000  0.0000  0.0000  0.0000  0.0000  0.0000 -1.0000  0.0002  0.0000 -0.0025      0.0000  0.0000  0.0000  0.0000  0.0000  0.0000  0.0000  0.0000  0.0000  0.0000
  o =  0.0989  v =  0.0000 -1.0000  0.0002  0.0000 -0.0025  0.0000  0.0000  0.0000  0.0000  0.0000      0.0000  0.0000  0.0000  0.0000  0.0000  0.0000  0.0000  0.0000  0.0000  0.0000
  o =  0.1007  v =  0.0000  0.0000  0.0000  0.0000  0.0000  0.0898  0.0000  0.0000  0.9960 -0.0000      0.0000  0.0000  0.0000  0.0000  0.0000  0.0000  0.0000  0.0000  0.0000  0.0000
  o =  0.1007  v = -0.0887 -0.0000 -0.0000 -0.9961  0.0000  0.0000  0.0000  0.0000  0.0000  0.0000      0.0000  0.0000  0.0000  0.0000  0.0000  0.0000  0.0000  0.0000  0.0000  0.0000
  o =  0.1061  v =  0.0000  0.0000  0.0000  0.0000  0.0000  0.9960  0.0000 -0.0000 -0.0898 -0.0000      0.0000  0.0000  0.0000  0.0000  0.0000  0.0000  0.0000  0.0000  0.0000  0.0000
  o =  0.1061  v =  0.9961 -0.0000 -0.0000 -0.0887  0.0000  0.0000  0.0000  0.0000  0.0000  0.0000      0.0000  0.0000  0.0000  0.0000  0.0000  0.0000  0.0000  0.0000  0.0000  0.0000
  o =  0.2431  v =  0.0000  0.0000  0.0000  0.0000  0.0000 -0.0000  0.0002 -0.9904  0.0000 -0.1385      0.0000  0.0000  0.0000  0.0000  0.0000  0.0000  0.0000  0.0000  0.0000  0.0000
  o =  0.2431  v = -0.0000  0.0002 -0.9904  0.0000 -0.1385  0.0000  0.0000  0.0000  0.0000  0.0000      0.0000  0.0000  0.0000  0.0000  0.0000  0.0000  0.0000  0.0000  0.0000  0.0000
  o =  0.2509  v =  0.0000  0.0025  0.1385 -0.0000 -0.9904  0.0000  0.0000  0.0000  0.0000  0.0000      0.0000  0.0000  0.0000  0.0000  0.0000  0.0000  0.0000  0.0000  0.0000  0.0000
  o =  0.2509  v =  0.0000  0.0000  0.0000  0.0000  0.0000  0.0000 -0.0025 -0.1385  0.0000  0.9904      0.0000  0.0000  0.0000  0.0000  0.0000  0.0000  0.0000  0.0000  0.0000  0.0000
atom =   2  type =  1  l = 2
 
 onsite density matrix
 
spin component  1
 
  0.1059 -0.0007 -0.0003 -0.0009 -0.0002
 -0.0007  0.0998 -0.0003  0.0000  0.0000
 -0.0003 -0.0003  0.2432 -0.0002  0.0000
 -0.0009  0.0000 -0.0002  0.0995  0.0001
 -0.0002  0.0000  0.0000  0.0001  0.2496
 
spin component  2
 
  0.1059 -0.0007 -0.0003 -0.0009 -0.0002
 -0.0007  0.0997 -0.0003  0.0000  0.0000
 -0.0003 -0.0003  0.2432 -0.0002  0.0000
 -0.0009  0.0000 -0.0002  0.0995  0.0001
 -0.0002  0.0000  0.0000  0.0001  0.2495
 
 occupancies and eigenvectors
 
  o =  0.0994  v =  0.0000  0.0000  0.0000  0.0000  0.0000 -0.1637 -0.3445 -0.0025 -0.9244  0.0004      0.0000  0.0000  0.0000  0.0000  0.0000  0.0000  0.0000  0.0000  0.0000  0.0000
  o =  0.0994  v = -0.1527 -0.1996 -0.0023 -0.9679  0.0004  0.0000  0.0000  0.0000  0.0000  0.0000      0.0000  0.0000  0.0000  0.0000  0.0000  0.0000  0.0000  0.0000  0.0000  0.0000
  o =  0.0996  v =  0.0000  0.0000  0.0000  0.0000  0.0000  0.0582  0.9320  0.0015 -0.3577 -0.0000      0.0000  0.0000  0.0000  0.0000  0.0000  0.0000  0.0000  0.0000  0.0000  0.0000
  o =  0.0997  v =  0.0832  0.9733  0.0021 -0.2139  0.0001  0.0000  0.0000  0.0000  0.0000  0.0000      0.0000  0.0000  0.0000  0.0000  0.0000  0.0000  0.0000  0.0000  0.0000  0.0000
  o =  0.1061  v =  0.9848 -0.1132  0.0019 -0.1320  0.0014  0.0000  0.0000  0.0000  0.0000  0.0000      0.0000  0.0000  0.0000  0.0000  0.0000  0.0000  0.0000  0.0000  0.0000  0.0000
  o =  0.1061  v =  0.0000  0.0000  0.0000  0.0000  0.0000  0.9848 -0.1124  0.0019 -0.1325  0.0015      0.0000  0.0000  0.0000  0.0000  0.0000  0.0000  0.0000  0.0000  0.0000  0.0000
  o =  0.2432  v =  0.0000  0.0000  0.0000  0.0000  0.0000 -0.0024 -0.0020  1.0000 -0.0015 -0.0025      0.0000  0.0000  0.0000  0.0000  0.0000  0.0000  0.0000  0.0000  0.0000  0.0000
  o =  0.2432  v = -0.0024 -0.0023  1.0000 -0.0015 -0.0051  0.0000  0.0000  0.0000  0.0000  0.0000      0.0000  0.0000  0.0000  0.0000  0.0000  0.0000  0.0000  0.0000  0.0000  0.0000
  o =  0.2495  v =  0.0000  0.0000  0.0000  0.0000  0.0000  0.0014 -0.0003 -0.0025 -0.0006 -1.0000      0.0000  0.0000  0.0000  0.0000  0.0000  0.0000  0.0000  0.0000  0.0000  0.0000
  o =  0.2496  v =  0.0014 -0.0002 -0.0051 -0.0006 -1.0000  0.0000  0.0000  0.0000  0.0000  0.0000      0.0000  0.0000  0.0000  0.0000  0.0000  0.0000  0.0000  0.0000  0.0000  0.0000
atom =   3  type =  1  l = 2
 
 onsite density matrix
 
spin component  1
 
  0.1059  0.0007  0.0003 -0.0009  0.0002
  0.0007  0.0998 -0.0003 -0.0000  0.0000
  0.0003 -0.0003  0.2432  0.0002  0.0000
 -0.0009 -0.0000  0.0002  0.0995 -0.0001
  0.0002  0.0000  0.0000 -0.0001  0.2496
 
spin component  2
 
  0.1059  0.0007  0.0003 -0.0009  0.0002
  0.0007  0.0997 -0.0003 -0.0000  0.0000
  0.0003 -0.0003  0.2432  0.0002  0.0000
 -0.0009 -0.0000  0.0002  0.0995 -0.0001
  0.0002  0.0000  0.0000 -0.0001  0.2495
 
 occupancies and eigenvectors
 
  o =  0.0994  v =  0.0000  0.0000  0.0000  0.0000  0.0000 -0.1638  0.3458  0.0025 -0.9239 -0.0004      0.0000  0.0000  0.0000  0.0000  0.0000  0.0000  0.0000  0.0000  0.0000  0.0000
  o =  0.0994  v = -0.1527  0.2000  0.0023 -0.9678 -0.0004  0.0000  0.0000  0.0000  0.0000  0.0000      0.0000  0.0000  0.0000  0.0000  0.0000  0.0000  0.0000  0.0000  0.0000  0.0000
  o =  0.0996  v =  0.0000  0.0000  0.0000  0.0000  0.0000 -0.0580  0.9316  0.0015  0.3590 -0.0000      0.0000  0.0000  0.0000  0.0000  0.0000  0.0000  0.0000  0.0000  0.0000  0.0000
  o =  0.0997  v = -0.0831  0.9732  0.0021  0.2143  0.0001  0.0000  0.0000  0.0000  0.0000  0.0000      0.0000  0.0000  0.0000  0.0000  0.0000  0.0000  0.0000  0.0000  0.0000  0.0000
  o =  0.1061  v =  0.9848  0.1132 -0.0019 -0.1320 -0.0014  0.0000  0.0000  0.0000  0.0000  0.0000      0.0000  0.0000  0.0000  0.0000  0.0000  0.0000  0.0000  0.0000  0.0000  0.0000
  o =  0.1061  v =  0.0000  0.0000  0.0000  0.0000  0.0000  0.9848  0.1124 -0.0019 -0.1325 -0.0015      0.0000  0.0000  0.0000  0.0000  0.0000  0.0000  0.0000  0.0000  0.0000  0.0000
  o =  0.2432  v =  0.0000  0.0000  0.0000  0.0000  0.0000 -0.0024  0.0020 -1.0000 -0.0015  0.0025      0.0000  0.0000  0.0000  0.0000  0.0000  0.0000  0.0000  0.0000  0.0000  0.0000
  o =  0.2432  v = -0.0024  0.0023 -1.0000 -0.0015  0.0051  0.0000  0.0000  0.0000  0.0000  0.0000      0.0000  0.0000  0.0000  0.0000  0.0000  0.0000  0.0000  0.0000  0.0000  0.0000
  o =  0.2495  v =  0.0000  0.0000  0.0000  0.0000  0.0000  0.0014  0.0003  0.0025 -0.0006  1.0000      0.0000  0.0000  0.0000  0.0000  0.0000  0.0000  0.0000  0.0000  0.0000  0.0000
  o =  0.2496  v =  0.0014  0.0002  0.0051 -0.0006  1.0000  0.0000  0.0000  0.0000  0.0000  0.0000      0.0000  0.0000  0.0000  0.0000  0.0000  0.0000  0.0000  0.0000  0.0000  0.0000
atom =   4  type =  1  l = 2
 
 onsite density matrix
 
spin component  1
 
  0.1065  0.0000  0.0000  0.0000 -0.0000
  0.0000  0.1001  0.0000  0.0000  0.0000
  0.0000  0.0000  0.2424 -0.0000  0.0003
  0.0000  0.0000 -0.0000  0.0995  0.0000
 -0.0000  0.0000  0.0003  0.0000  0.2517
 
spin component  2
 
  0.1065  0.0000 -0.0000  0.0000 -0.0000
  0.0000  0.1001  0.0000 -0.0000  0.0000
 -0.0000  0.0000  0.2424 -0.0000  0.0003
  0.0000 -0.0000 -0.0000  0.0995  0.0000
 -0.0000  0.0000  0.0003  0.0000  0.2517
 
 occupancies and eigenvectors
 
  o =  0.0995  v =  0.0000  0.0000  0.0000  0.0000  0.0000  0.0003 -0.0000 -0.0000 -1.0000  0.0000      0.0000  0.0000  0.0000  0.0000  0.0000  0.0000  0.0000  0.0000  0.0000  0.0000
  o =  0.0995  v =  0.0003  0.0000 -0.0000 -1.0000  0.0000  0.0000  0.0000  0.0000  0.0000  0.0000      0.0000  0.0000  0.0000  0.0000  0.0000  0.0000  0.0000  0.0000  0.0000  0.0000
  o =  0.1001  v =  0.0000 -1.0000  0.0000 -0.0000  0.0000  0.0000  0.0000  0.0000  0.0000  0.0000      0.0000  0.0000  0.0000  0.0000  0.0000  0.0000  0.0000  0.0000  0.0000  0.0000
  o =  0.1001  v =  0.0000  0.0000  0.0000  0.0000  0.0000 -0.0000  1.0000 -0.0000 -0.0000 -0.0000      0.0000  0.0000  0.0000  0.0000  0.0000  0.0000  0.0000  0.0000  0.0000  0.0000
  o =  0.1065  v =  0.0000  0.0000  0.0000  0.0000  0.0000  1.0000  0.0000  0.0000  0.0003  0.0000      0.0000  0.0000  0.0000  0.0000  0.0000  0.0000  0.0000  0.0000  0.0000  0.0000
  o =  0.1065  v =  1.0000  0.0000 -0.0000  0.0003  0.0000  0.0000  0.0000  0.0000  0.0000  0.0000      0.0000  0.0000  0.0000  0.0000  0.0000  0.0000  0.0000  0.0000  0.0000  0.0000
  o =  0.2424  v =  0.0000  0.0000  0.0000  0.0000  0.0000  0.0000 -0.0000 -0.9994  0.0000  0.0353      0.0000  0.0000  0.0000  0.0000  0.0000  0.0000  0.0000  0.0000  0.0000  0.0000
  o =  0.2424  v =  0.0000  0.0000  0.9994 -0.0000 -0.0354  0.0000  0.0000  0.0000  0.0000  0.0000      0.0000  0.0000  0.0000  0.0000  0.0000  0.0000  0.0000  0.0000  0.0000  0.0000
  o =  0.2517  v =  0.0000  0.0000  0.0000  0.0000  0.0000 -0.0000  0.0000  0.0353  0.0000  0.9994      0.0000  0.0000  0.0000  0.0000  0.0000  0.0000  0.0000  0.0000  0.0000  0.0000
  o =  0.2518  v = -0.0000  0.0000  0.0354  0.0000  0.9994  0.0000  0.0000  0.0000  0.0000  0.0000      0.0000  0.0000  0.0000  0.0000  0.0000  0.0000  0.0000  0.0000  0.0000  0.0000
atom =   5  type =  1  l = 2
 
 onsite density matrix
 
spin component  1
 
  0.1062 -0.0004  0.0000  0.0000  0.0000
 -0.0004  0.1007  0.0000 -0.0000  0.0000
  0.0000  0.0000  0.2423  0.0004  0.0012
  0.0000 -0.0000  0.0004  0.0991  0.0000
  0.0000  0.0000  0.0012  0.0000  0.2509
 
spin component  2
 
  0.1062 -0.0004  0.0000  0.0000  0.0000
 -0.0004  0.1007  0.0000 -0.0000  0.0000
  0.0000  0.0000  0.2422  0.0004  0.0012
  0.0000 -0.0000  0.0004  0.0991  0.0000
  0.0000  0.0000  0.0012  0.0000  0.2509
 
 occupancies and eigenvectors
 
  o =  0.0991  v =  0.0000  0.0000  0.0000  0.0000  0.0000  0.0002 -0.0001  0.0025 -1.0000  0.0001      0.0000  0.0000  0.0000  0.0000  0.0000  0.0000  0.0000  0.0000  0.0000  0.0000
  o =  0.0991  v =  0.0002 -0.0001  0.0025 -1.0000  0.0001  0.0000  0.0000  0.0000  0.0000  0.0000      0.0000  0.0000  0.0000  0.0000  0.0000  0.0000  0.0000  0.0000  0.0000  0.0000
  o =  0.1006  v =  0.0000  0.0000  0.0000  0.0000  0.0000 -0.0789 -0.9969  0.0000  0.0001  0.0000      0.0000  0.0000  0.0000  0.0000  0.0000  0.0000  0.0000  0.0000  0.0000  0.0000
  o =  0.1007  v = -0.0788 -0.9969  0.0000  0.0001  0.0000  0.0000  0.0000  0.0000  0.0000  0.0000      0.0000  0.0000  0.0000  0.0000  0.0000  0.0000  0.0000  0.0000  0.0000  0.0000
  o =  0.1063  v =  0.0000  0.0000  0.0000  0.0000  0.0000  0.9969 -0.0789 -0.0000  0.0002 -0.0000      0.0000  0.0000  0.0000  0.0000  0.0000  0.0000  0.0000  0.0000  0.0000  0.0000
  o =  0.1063  v =  0.9969 -0.0788 -0.0000  0.0002 -0.0000  0.0000  0.0000  0.0000  0.0000  0.0000      0.0000  0.0000  0.0000  0.0000  0.0000  0.0000  0.0000  0.0000  0.0000  0.0000
  o =  0.2421  v =  0.0000  0.0000  0.0000  0.0000  0.0000 -0.0000 -0.0000 -0.9913 -0.0025  0.1319      0.0000  0.0000  0.0000  0.0000  0.0000  0.0000  0.0000  0.0000  0.0000  0.0000
  o =  0.2421  v = -0.0000 -0.0000 -0.9912 -0.0025  0.1321  0.0000  0.0000  0.0000  0.0000  0.0000      0.0000  0.0000  0.0000  0.0000  0.0000  0.0000  0.0000  0.0000  0.0000  0.0000
  o =  0.2511  v =  0.0000  0.0000  0.1321  0.0005  0.9912  0.0000  0.0000  0.0000  0.0000  0.0000      0.0000  0.0000  0.0000  0.0000  0.0000  0.0000  0.0000  0.0000  0.0000  0.0000
  o =  0.2511  v =  0.0000  0.0000  0.0000  0.0000  0.0000  0.0000  0.0000  0.1319  0.0005  0.9913      0.0000  0.0000  0.0000  0.0000  0.0000  0.0000  0.0000  0.0000  0.0000  0.0000
atom =   6  type =  1  l = 2
 
 onsite density matrix
 
spin component  1
 
  0.1062  0.0004 -0.0000  0.0000 -0.0000
  0.0004  0.1007  0.0000  0.0000  0.0000
 -0.0000  0.0000  0.2423 -0.0004  0.0012
  0.0000  0.0000 -0.0004  0.0991 -0.0000
 -0.0000  0.0000  0.0012 -0.0000  0.2509
 
spin component  2
 
  0.1062  0.0004 -0.0000  0.0000 -0.0000
  0.0004  0.1007  0.0000  0.0000  0.0000
 -0.0000  0.0000  0.2422 -0.0004  0.0012
  0.0000  0.0000 -0.0004  0.0991 -0.0000
 -0.0000  0.0000  0.0012 -0.0000  0.2509
 
 occupancies and eigenvectors
 
  o =  0.0991  v =  0.0000  0.0000  0.0000  0.0000  0.0000  0.0002  0.0001 -0.0025 -1.0000 -0.0001      0.0000  0.0000  0.0000  0.0000  0.0000  0.0000  0.0000  0.0000  0.0000  0.0000
  o =  0.0991  v =  0.0002  0.0001 -0.0025 -1.0000 -0.0001  0.0000  0.0000  0.0000  0.0000  0.0000      0.0000  0.0000  0.0000  0.0000  0.0000  0.0000  0.0000  0.0000  0.0000  0.0000
  o =  0.1006  v =  0.0000  0.0000  0.0000  0.0000  0.0000  0.0789 -0.9969  0.0000 -0.0001  0.0000      0.0000  0.0000  0.0000  0.0000  0.0000  0.0000  0.0000  0.0000  0.0000  0.0000
  o =  0.1007  v =  0.0788 -0.9969  0.0000 -0.0001  0.0000  0.0000  0.0000  0.0000  0.0000  0.0000      0.0000  0.0000  0.0000  0.0000  0.0000  0.0000  0.0000  0.0000  0.0000  0.0000
  o =  0.1063  v =  0.0000  0.0000  0.0000  0.0000  0.0000  0.9969  0.0789  0.0000  0.0002  0.0000      0.0000  0.0000  0.0000  0.0000  0.0000  0.0000  0.0000  0.0000  0.0000  0.0000
  o =  0.1063  v =  0.9969  0.0788  0.0000  0.0002  0.0000  0.0000  0.0000  0.0000  0.0000  0.0000      0.0000  0.0000  0.0000  0.0000  0.0000  0.0000  0.0000  0.0000  0.0000  0.0000
  o =  0.2421  v =  0.0000  0.0000  0.0000  0.0000  0.0000  0.0000 -0.0000 -0.9913  0.0025  0.1319      0.0000  0.0000  0.0000  0.0000  0.0000  0.0000  0.0000  0.0000  0.0000  0.0000
  o =  0.2421  v =  0.0000 -0.0000 -0.9912  0.0025  0.1321  0.0000  0.0000  0.0000  0.0000  0.0000      0.0000  0.0000  0.0000  0.0000  0.0000  0.0000  0.0000  0.0000  0.0000  0.0000
  o =  0.2511  v = -0.0000  0.0000  0.1321 -0.0005  0.9912  0.0000  0.0000  0.0000  0.0000  0.0000      0.0000  0.0000  0.0000  0.0000  0.0000  0.0000  0.0000  0.0000  0.0000  0.0000
  o =  0.2511  v =  0.0000  0.0000  0.0000  0.0000  0.0000 -0.0000  0.0000  0.1319 -0.0005  0.9913      0.0000  0.0000  0.0000  0.0000  0.0000  0.0000  0.0000  0.0000  0.0000  0.0000
atom =   7  type =  1  l = 2
 
 onsite density matrix
 
spin component  1
 
  0.1061 -0.0000  0.0000  0.0005  0.0000
 -0.0000  0.0989 -0.0000  0.0000  0.0004
  0.0000 -0.0000  0.2433  0.0000 -0.0011
  0.0005  0.0000  0.0000  0.1007  0.0000
  0.0000  0.0004 -0.0011  0.0000  0.2507
 
spin component  2
 
  0.1061 -0.0000  0.0000  0.0005  0.0000
 -0.0000  0.0989 -0.0000 -0.0000  0.0004
  0.0000 -0.0000  0.2433  0.0000 -0.0011
  0.0005 -0.0000  0.0000  0.1007  0.0000
  0.0000  0.0004 -0.0011  0.0000  0.2507
 
 occupancies and eigenvectors
 
  o =  0.0989  v =  0.0000  0.0000  0.0000  0.0000  0.0000 -0.0000 -1.0000 -0.0002  0.0000  0.0025      0.0000  0.0000  0.0000  0.0000  0.0000  0.0000  0.0000  0.0000  0.0000  0.0000
  o =  0.0989  v = -0.0000 -1.0000 -0.0002  0.0000  0.0025  0.0000  0.0000  0.0000  0.0000  0.0000      0.0000  0.0000  0.0000  0.0000  0.0000  0.0000  0.0000  0.0000  0.0000  0.0000
  o =  0.1007  v =  0.0000  0.0000  0.0000  0.0000  0.0000 -0.0901  0.0000 -0.0000  0.9959 -0.0000      0.0000  0.0000  0.0000  0.0000  0.0000  0.0000  0.0000  0.0000  0.0000  0.0000
  o =  0.1007  v = -0.0890  0.0000 -0.0000  0.9960 -0.0000  0.0000  0.0000  0.0000  0.0000  0.0000      0.0000  0.0000  0.0000  0.0000  0.0000  0.0000  0.0000  0.0000  0.0000  0.0000
  o =  0.1061  v =  0.0000  0.0000  0.0000  0.0000  0.0000  0.9959 -0.0000 -0.0000  0.0901 -0.0000      0.0000  0.0000  0.0000  0.0000  0.0000  0.0000  0.0000  0.0000  0.0000  0.0000
  o =  0.1061  v =  0.9960 -0.0000 -0.0000  0.0890 -0.0000  0.0000  0.0000  0.0000  0.0000  0.0000      0.0000  0.0000  0.0000  0.0000  0.0000  0.0000  0.0000  0.0000  0.0000  0.0000
  o =  0.2431  v =  0.0000  0.0000  0.0000  0.0000  0.0000 -0.0000 -0.0001 -0.9904 -0.0000 -0.1384      0.0000  0.0000  0.0000  0.0000  0.0000  0.0000  0.0000  0.0000  0.0000  0.0000
  o =  0.2431  v = -0.0000 -0.0002 -0.9904 -0.0000 -0.1384  0.0000  0.0000  0.0000  0.0000  0.0000      0.0000  0.0000  0.0000  0.0000  0.0000  0.0000  0.0000  0.0000  0.0000  0.0000
  o =  0.2509  v =  0.0000  0.0025 -0.1384  0.0000  0.9904  0.0000  0.0000  0.0000  0.0000  0.0000      0.0000  0.0000  0.0000  0.0000  0.0000  0.0000  0.0000  0.0000  0.0000  0.0000
  o =  0.2509  v =  0.0000  0.0000  0.0000  0.0000  0.0000  0.0000  0.0025 -0.1384  0.0000  0.9904      0.0000  0.0000  0.0000  0.0000  0.0000  0.0000  0.0000  0.0000  0.0000  0.0000
atom =   8  type =  1  l = 2
 
 onsite density matrix
 
spin component  1
 
  0.1059 -0.0007  0.0003  0.0009  0.0002
 -0.0007  0.0998  0.0003 -0.0000 -0.0000
  0.0003  0.0003  0.2433 -0.0002  0.0000
  0.0009 -0.0000 -0.0002  0.0995  0.0001
  0.0002 -0.0000  0.0000  0.0001  0.2496
 
spin component  2
 
  0.1059 -0.0007  0.0003  0.0009  0.0002
 -0.0007  0.0997  0.0003 -0.0000 -0.0000
  0.0003  0.0003  0.2432 -0.0002  0.0000
  0.0009 -0.0000 -0.0002  0.0995  0.0001
  0.0002 -0.0000  0.0000  0.0001  0.2495
 
 occupancies and eigenvectors
 
  o =  0.0994  v =  0.0000  0.0000  0.0000  0.0000  0.0000 -0.1632 -0.3358  0.0025  0.9277 -0.0004      0.0000  0.0000  0.0000  0.0000  0.0000  0.0000  0.0000  0.0000  0.0000  0.0000
  o =  0.0994  v = -0.1524 -0.1962  0.0023  0.9686 -0.0004  0.0000  0.0000  0.0000  0.0000  0.0000      0.0000  0.0000  0.0000  0.0000  0.0000  0.0000  0.0000  0.0000  0.0000  0.0000
  o =  0.0996  v =  0.0000  0.0000  0.0000  0.0000  0.0000 -0.0598 -0.9352  0.0015 -0.3490  0.0000      0.0000  0.0000  0.0000  0.0000  0.0000  0.0000  0.0000  0.0000  0.0000  0.0000
  o =  0.0997  v = -0.0838 -0.9740  0.0022 -0.2105  0.0001  0.0000  0.0000  0.0000  0.0000  0.0000      0.0000  0.0000  0.0000  0.0000  0.0000  0.0000  0.0000  0.0000  0.0000  0.0000
  o =  0.1061  v =  0.9848 -0.1132 -0.0019  0.1321 -0.0014  0.0000  0.0000  0.0000  0.0000  0.0000      0.0000  0.0000  0.0000  0.0000  0.0000  0.0000  0.0000  0.0000  0.0000  0.0000
  o =  0.1061  v =  0.0000  0.0000  0.0000  0.0000  0.0000  0.9848 -0.1124 -0.0019  0.1326 -0.0014      0.0000  0.0000  0.0000  0.0000  0.0000  0.0000  0.0000  0.0000  0.0000  0.0000
  o =  0.2432  v =  0.0000  0.0000  0.0000  0.0000  0.0000 -0.0024 -0.0021 -1.0000  0.0015  0.0032      0.0000  0.0000  0.0000  0.0000  0.0000  0.0000  0.0000  0.0000  0.0000  0.0000
  o =  0.2433  v = -0.0024 -0.0024 -1.0000  0.0015  0.0058  0.0000  0.0000  0.0000  0.0000  0.0000      0.0000  0.0000  0.0000  0.0000  0.0000  0.0000  0.0000  0.0000  0.0000  0.0000
  o =  0.2495  v =  0.0000  0.0000  0.0000  0.0000  0.0000  0.0014 -0.0003  0.0032  0.0006  1.0000      0.0000  0.0000  0.0000  0.0000  0.0000  0.0000  0.0000  0.0000  0.0000  0.0000
  o =  0.2496  v =  0.0013 -0.0001  0.0058  0.0006  1.0000  0.0000  0.0000  0.0000  0.0000  0.0000      0.0000  0.0000  0.0000  0.0000  0.0000  0.0000  0.0000  0.0000  0.0000  0.0000
atom =   9  type =  1  l = 2
 
 onsite density matrix
 
spin component  1
 
  0.1059  0.0007 -0.0003  0.0009 -0.0002
  0.0007  0.0998  0.0003  0.0000 -0.0000
 -0.0003  0.0003  0.2433  0.0002  0.0000
  0.0009  0.0000  0.0002  0.0995 -0.0001
 -0.0002 -0.0000  0.0000 -0.0001  0.2496
 
spin component  2
 
  0.1059  0.0007 -0.0003  0.0009 -0.0002
  0.0007  0.0997  0.0003  0.0000 -0.0000
 -0.0003  0.0003  0.2432  0.0002  0.0000
  0.0009  0.0000  0.0002  0.0995 -0.0001
 -0.0002 -0.0000  0.0000 -0.0001  0.2495
 
 occupancies and eigenvectors
 
  o =  0.0994  v =  0.0000  0.0000  0.0000  0.0000  0.0000 -0.1632  0.3349 -0.0025  0.9280  0.0004      0.0000  0.0000  0.0000  0.0000  0.0000  0.0000  0.0000  0.0000  0.0000  0.0000
  o =  0.0994  v = -0.1524  0.1958 -0.0023  0.9687  0.0004  0.0000  0.0000  0.0000  0.0000  0.0000      0.0000  0.0000  0.0000  0.0000  0.0000  0.0000  0.0000  0.0000  0.0000  0.0000
  o =  0.0996  v =  0.0000  0.0000  0.0000  0.0000  0.0000  0.0600 -0.9355  0.0015  0.3481  0.0000      0.0000  0.0000  0.0000  0.0000  0.0000  0.0000  0.0000  0.0000  0.0000  0.0000
  o =  0.0997  v =  0.0838 -0.9741  0.0022  0.2101  0.0001  0.0000  0.0000  0.0000  0.0000  0.0000      0.0000  0.0000  0.0000  0.0000  0.0000  0.0000  0.0000  0.0000  0.0000  0.0000
  o =  0.1061  v =  0.9847  0.1133  0.0019  0.1320  0.0014  0.0000  0.0000  0.0000  0.0000  0.0000      0.0000  0.0000  0.0000  0.0000  0.0000  0.0000  0.0000  0.0000  0.0000  0.0000
  o =  0.1061  v =  0.0000  0.0000  0.0000  0.0000  0.0000  0.9848  0.1124  0.0019  0.1326  0.0014      0.0000  0.0000  0.0000  0.0000  0.0000  0.0000  0.0000  0.0000  0.0000  0.0000
  o =  0.2432  v =  0.0000  0.0000  0.0000  0.0000  0.0000 -0.0024  0.0021  1.0000  0.0015 -0.0032      0.0000  0.0000  0.0000  0.0000  0.0000  0.0000  0.0000  0.0000  0.0000  0.0000
  o =  0.2433  v = -0.0024  0.0024  1.0000  0.0015 -0.0058  0.0000  0.0000  0.0000  0.0000  0.0000      0.0000  0.0000  0.0000  0.0000  0.0000  0.0000  0.0000  0.0000  0.0000  0.0000
  o =  0.2495  v =  0.0000  0.0000  0.0000  0.0000  0.0000  0.0013  0.0003 -0.0032  0.0006 -1.0000      0.0000  0.0000  0.0000  0.0000  0.0000  0.0000  0.0000  0.0000  0.0000  0.0000
  o =  0.2496  v =  0.0013  0.0001 -0.0057  0.0006 -1.0000  0.0000  0.0000  0.0000  0.0000  0.0000      0.0000  0.0000  0.0000  0.0000  0.0000  0.0000  0.0000  0.0000  0.0000  0.0000
atom =  10  type =  1  l = 2
 
 onsite density matrix
 
spin component  1
 
  0.1065 -0.0006 -0.0002 -0.0007 -0.0007
 -0.0006  0.1000  0.0004  0.0000  0.0005
 -0.0002  0.0004  0.2422  0.0001  0.0002
 -0.0007  0.0000  0.0001  0.0998 -0.0000
 -0.0007  0.0005  0.0002 -0.0000  0.2509
 
spin component  2
 
  0.1064 -0.0006 -0.0002 -0.0006 -0.0007
 -0.0006  0.1000  0.0004  0.0001  0.0005
 -0.0002  0.0004  0.2422  0.0001  0.0002
 -0.0006  0.0001  0.0001  0.0997  0.0000
 -0.0007  0.0005  0.0002  0.0000  0.2509
 
 occupancies and eigenvectors
 
  o =  0.0997  v =  0.0000  0.0000  0.0000  0.0000  0.0000 -0.0818  0.0649  0.0003 -0.9945 -0.0006      0.0000  0.0000  0.0000  0.0000  0.0000  0.0000  0.0000  0.0000  0.0000  0.0000
  o =  0.0997  v =  0.0962  0.0187 -0.0004  0.9952  0.0004  0.0000  0.0000  0.0000  0.0000  0.0000      0.0000  0.0000  0.0000  0.0000  0.0000  0.0000  0.0000  0.0000  0.0000  0.0000
  o =  0.1000  v =  0.0000  0.0000  0.0000  0.0000  0.0000 -0.0996 -0.9934  0.0029 -0.0566  0.0031      0.0000  0.0000  0.0000  0.0000  0.0000  0.0000  0.0000  0.0000  0.0000  0.0000
  o =  0.1000  v = -0.0814 -0.9963  0.0029  0.0266  0.0031  0.0000  0.0000  0.0000  0.0000  0.0000      0.0000  0.0000  0.0000  0.0000  0.0000  0.0000  0.0000  0.0000  0.0000  0.0000
  o =  0.1065  v =  0.0000  0.0000  0.0000  0.0000  0.0000  0.9916 -0.0944  0.0019 -0.0877  0.0052      0.0000  0.0000  0.0000  0.0000  0.0000  0.0000  0.0000  0.0000  0.0000  0.0000
  o =  0.1066  v =  0.9920 -0.0835  0.0015 -0.0944  0.0049  0.0000  0.0000  0.0000  0.0000  0.0000      0.0000  0.0000  0.0000  0.0000  0.0000  0.0000  0.0000  0.0000  0.0000  0.0000
  o =  0.2422  v =  0.0000  0.0000  0.0000  0.0000  0.0000  0.0014 -0.0029 -0.9996 -0.0006  0.0283      0.0000  0.0000  0.0000  0.0000  0.0000  0.0000  0.0000  0.0000  0.0000  0.0000
  o =  0.2422  v =  0.0011 -0.0030 -0.9996 -0.0004  0.0286  0.0000  0.0000  0.0000  0.0000  0.0000      0.0000  0.0000  0.0000  0.0000  0.0000  0.0000  0.0000  0.0000  0.0000  0.0000
  o =  0.2510  v = -0.0047  0.0036  0.0286 -0.0000  0.9996  0.0000  0.0000  0.0000  0.0000  0.0000      0.0000  0.0000  0.0000  0.0000  0.0000  0.0000  0.0000  0.0000  0.0000  0.0000
  o =  0.2510  v =  0.0000  0.0000  0.0000  0.0000  0.0000 -0.0049  0.0037  0.0283  0.0001  0.9996      0.0000  0.0000  0.0000  0.0000  0.0000  0.0000  0.0000  0.0000  0.0000  0.0000
atom =  11  type =  1  l = 2
 
 onsite density matrix
 
spin component  1
 
  0.1077  0.0000 -0.0000 -0.0020  0.0000
  0.0000  0.1024  0.0049  0.0000  0.0058
 -0.0000  0.0049  0.2401  0.0000  0.0068
 -0.0020  0.0000  0.0000  0.0996 -0.0000
  0.0000  0.0058  0.0068 -0.0000  0.2523
 
spin component  2
 
  0.1056  0.0000 -0.0000 -0.0013  0.0000
  0.0000  0.1027  0.0051 -0.0000  0.0061
 -0.0000  0.0051  0.2402  0.0000  0.0070
 -0.0013 -0.0000  0.0000  0.0993 -0.0000
  0.0000  0.0061  0.0070 -0.0000  0.2526
 
 occupancies and eigenvectors
 
  o =  0.0990  v =  0.0000  0.0000  0.0000  0.0000  0.0000  0.1890 -0.0000  0.0000  0.9820  0.0000      0.0000  0.0000  0.0000  0.0000  0.0000  0.0000  0.0000  0.0000  0.0000  0.0000
  o =  0.0991  v =  0.2226 -0.0000  0.0000  0.9749  0.0000  0.0000  0.0000  0.0000  0.0000  0.0000      0.0000  0.0000  0.0000  0.0000  0.0000  0.0000  0.0000  0.0000  0.0000  0.0000
  o =  0.1020  v = -0.0000  0.9988 -0.0334  0.0000 -0.0368  0.0000  0.0000  0.0000  0.0000  0.0000      0.0000  0.0000  0.0000  0.0000  0.0000  0.0000  0.0000  0.0000  0.0000  0.0000
  o =  0.1023  v =  0.0000  0.0000  0.0000  0.0000  0.0000 -0.0000  0.9986 -0.0350  0.0000 -0.0390      0.0000  0.0000  0.0000  0.0000  0.0000  0.0000  0.0000  0.0000  0.0000  0.0000
  o =  0.1059  v =  0.0000  0.0000  0.0000  0.0000  0.0000  0.9820  0.0000 -0.0000 -0.1890 -0.0000      0.0000  0.0000  0.0000  0.0000  0.0000  0.0000  0.0000  0.0000  0.0000  0.0000
  o =  0.1081  v =  0.9749  0.0000 -0.0000 -0.2226 -0.0000  0.0000  0.0000  0.0000  0.0000  0.0000      0.0000  0.0000  0.0000  0.0000  0.0000  0.0000  0.0000  0.0000  0.0000  0.0000
  o =  0.2371  v =  0.0000  0.0000  0.0000  0.0000  0.0000 -0.0000  0.0156  0.9088  0.0000 -0.4169      0.0000  0.0000  0.0000  0.0000  0.0000  0.0000  0.0000  0.0000  0.0000  0.0000
  o =  0.2371  v = -0.0000  0.0152  0.9103  0.0000 -0.4136  0.0000  0.0000  0.0000  0.0000  0.0000      0.0000  0.0000  0.0000  0.0000  0.0000  0.0000  0.0000  0.0000  0.0000  0.0000
  o =  0.2557  v =  0.0000  0.0473  0.4125 -0.0000  0.9097  0.0000  0.0000  0.0000  0.0000  0.0000      0.0000  0.0000  0.0000  0.0000  0.0000  0.0000  0.0000  0.0000  0.0000  0.0000
  o =  0.2562  v =  0.0000  0.0000  0.0000  0.0000  0.0000  0.0000  0.0500  0.4157 -0.0000  0.9081      0.0000  0.0000  0.0000  0.0000  0.0000  0.0000  0.0000  0.0000  0.0000  0.0000
atom =  12  type =  1  l = 2
 
 onsite density matrix
 
spin component  1
 
  0.1065  0.0006  0.0002 -0.0007  0.0007
  0.0006  0.1000  0.0004 -0.0000  0.0005
  0.0002  0.0004  0.2422 -0.0001  0.0002
 -0.0007 -0.0000 -0.0001  0.0998  0.0000
  0.0007  0.0005  0.0002  0.0000  0.2509
 
spin component  2
 
  0.1064  0.0006  0.0002 -0.0006  0.0007
  0.0006  0.1000  0.0004 -0.0001  0.0005
  0.0002  0.0004  0.2422 -0.0001  0.0002
 -0.0006 -0.0001 -0.0001  0.0997 -0.0000
  0.0007  0.0005  0.0002 -0.0000  0.2509
 
 occupancies and eigenvectors
 
  o =  0.0997  v =  0.0000  0.0000  0.0000  0.0000  0.0000  0.0818  0.0650  0.0003  0.9945 -0.0006      0.0000  0.0000  0.0000  0.0000  0.0000  0.0000  0.0000  0.0000  0.0000  0.0000
  o =  0.0997  v =  0.0962 -0.0187  0.0004  0.9952 -0.0004  0.0000  0.0000  0.0000  0.0000  0.0000      0.0000  0.0000  0.0000  0.0000  0.0000  0.0000  0.0000  0.0000  0.0000  0.0000
  o =  0.1000  v =  0.0000  0.0000  0.0000  0.0000  0.0000 -0.0996  0.9934 -0.0029 -0.0567 -0.0031      0.0000  0.0000  0.0000  0.0000  0.0000  0.0000  0.0000  0.0000  0.0000  0.0000
  o =  0.1000  v =  0.0814 -0.9963  0.0029 -0.0266  0.0031  0.0000  0.0000  0.0000  0.0000  0.0000      0.0000  0.0000  0.0000  0.0000  0.0000  0.0000  0.0000  0.0000  0.0000  0.0000
  o =  0.1065  v =  0.0000  0.0000  0.0000  0.0000  0.0000  0.9917  0.0944 -0.0019 -0.0877 -0.0052      0.0000  0.0000  0.0000  0.0000  0.0000  0.0000  0.0000  0.0000  0.0000  0.0000
  o =  0.1066  v =  0.9920  0.0835 -0.0015 -0.0944 -0.0049  0.0000  0.0000  0.0000  0.0000  0.0000      0.0000  0.0000  0.0000  0.0000  0.0000  0.0000  0.0000  0.0000  0.0000  0.0000
  o =  0.2422  v =  0.0000  0.0000  0.0000  0.0000  0.0000  0.0014  0.0029  0.9996 -0.0006 -0.0283      0.0000  0.0000  0.0000  0.0000  0.0000  0.0000  0.0000  0.0000  0.0000  0.0000
  o =  0.2422  v =  0.0011  0.0030  0.9996 -0.0004 -0.0286  0.0000  0.0000  0.0000  0.0000  0.0000      0.0000  0.0000  0.0000  0.0000  0.0000  0.0000  0.0000  0.0000  0.0000  0.0000
  o =  0.2510  v = -0.0047 -0.0036 -0.0286 -0.0000 -0.9996  0.0000  0.0000  0.0000  0.0000  0.0000      0.0000  0.0000  0.0000  0.0000  0.0000  0.0000  0.0000  0.0000  0.0000  0.0000
  o =  0.2510  v =  0.0000  0.0000  0.0000  0.0000  0.0000 -0.0049 -0.0037 -0.0283  0.0001 -0.9996      0.0000  0.0000  0.0000  0.0000  0.0000  0.0000  0.0000  0.0000  0.0000  0.0000
atom =  13  type =  1  l = 2
 
 onsite density matrix
 
spin component  1
 
  0.1065 -0.0006  0.0002  0.0006  0.0007
 -0.0006  0.1001 -0.0004 -0.0000 -0.0005
  0.0002 -0.0004  0.2422  0.0001  0.0002
  0.0006 -0.0000  0.0001  0.0998 -0.0000
  0.0007 -0.0005  0.0002 -0.0000  0.2509
 
spin component  2
 
  0.1064 -0.0006  0.0002  0.0006  0.0007
 -0.0006  0.1001 -0.0004 -0.0001 -0.0005
  0.0002 -0.0004  0.2422  0.0001  0.0002
  0.0006 -0.0001  0.0001  0.0997  0.0000
  0.0007 -0.0005  0.0002  0.0000  0.2509
 
 occupancies and eigenvectors
 
  o =  0.0997  v =  0.0000  0.0000  0.0000  0.0000  0.0000  0.0812 -0.0651  0.0003 -0.9946 -0.0006      0.0000  0.0000  0.0000  0.0000  0.0000  0.0000  0.0000  0.0000  0.0000  0.0000
  o =  0.0997  v =  0.0955  0.0170  0.0004 -0.9953 -0.0004  0.0000  0.0000  0.0000  0.0000  0.0000      0.0000  0.0000  0.0000  0.0000  0.0000  0.0000  0.0000  0.0000  0.0000  0.0000
  o =  0.1000  v =  0.0000  0.0000  0.0000  0.0000  0.0000 -0.0992 -0.9934 -0.0029  0.0570 -0.0031      0.0000  0.0000  0.0000  0.0000  0.0000  0.0000  0.0000  0.0000  0.0000  0.0000
  o =  0.1000  v =  0.0812  0.9964  0.0030  0.0248  0.0032  0.0000  0.0000  0.0000  0.0000  0.0000      0.0000  0.0000  0.0000  0.0000  0.0000  0.0000  0.0000  0.0000  0.0000  0.0000
  o =  0.1065  v =  0.0000  0.0000  0.0000  0.0000  0.0000  0.9917 -0.0940 -0.0019  0.0872 -0.0051      0.0000  0.0000  0.0000  0.0000  0.0000  0.0000  0.0000  0.0000  0.0000  0.0000
  o =  0.1066  v =  0.9921 -0.0832 -0.0015  0.0938 -0.0049  0.0000  0.0000  0.0000  0.0000  0.0000      0.0000  0.0000  0.0000  0.0000  0.0000  0.0000  0.0000  0.0000  0.0000  0.0000
  o =  0.2422  v =  0.0000  0.0000  0.0000  0.0000  0.0000  0.0014 -0.0029  0.9996  0.0006 -0.0284      0.0000  0.0000  0.0000  0.0000  0.0000  0.0000  0.0000  0.0000  0.0000  0.0000
  o =  0.2422  v =  0.0011 -0.0030  0.9996  0.0004 -0.0287  0.0000  0.0000  0.0000  0.0000  0.0000      0.0000  0.0000  0.0000  0.0000  0.0000  0.0000  0.0000  0.0000  0.0000  0.0000
  o =  0.2510  v = -0.0046  0.0037 -0.0287 -0.0000 -0.9996  0.0000  0.0000  0.0000  0.0000  0.0000      0.0000  0.0000  0.0000  0.0000  0.0000  0.0000  0.0000  0.0000  0.0000  0.0000
  o =  0.2510  v =  0.0000  0.0000  0.0000  0.0000  0.0000 -0.0049  0.0037 -0.0284 -0.0001 -0.9996      0.0000  0.0000  0.0000  0.0000  0.0000  0.0000  0.0000  0.0000  0.0000  0.0000
atom =  14  type =  1  l = 2
 
 onsite density matrix
 
spin component  1
 
  0.1077 -0.0000  0.0000  0.0019 -0.0000
 -0.0000  0.1024 -0.0049  0.0000 -0.0058
  0.0000 -0.0049  0.2401 -0.0000  0.0068
  0.0019  0.0000 -0.0000  0.0995  0.0000
 -0.0000 -0.0058  0.0068  0.0000  0.2523
 
spin component  2
 
  0.1056  0.0000  0.0000  0.0013 -0.0000
  0.0000  0.1027 -0.0051 -0.0000 -0.0061
  0.0000 -0.0051  0.2402  0.0000  0.0070
  0.0013 -0.0000  0.0000  0.0993  0.0000
 -0.0000 -0.0061  0.0070  0.0000  0.2526
 
 occupancies and eigenvectors
 
  o =  0.0990  v =  0.0000  0.0000  0.0000  0.0000  0.0000 -0.1884  0.0000  0.0000  0.9821 -0.0000      0.0000  0.0000  0.0000  0.0000  0.0000  0.0000  0.0000  0.0000  0.0000  0.0000
  o =  0.0991  v =  0.2222  0.0000  0.0000 -0.9750  0.0000  0.0000  0.0000  0.0000  0.0000  0.0000      0.0000  0.0000  0.0000  0.0000  0.0000  0.0000  0.0000  0.0000  0.0000  0.0000
  o =  0.1021  v =  0.0000  0.9988  0.0334  0.0000  0.0368  0.0000  0.0000  0.0000  0.0000  0.0000      0.0000  0.0000  0.0000  0.0000  0.0000  0.0000  0.0000  0.0000  0.0000  0.0000
  o =  0.1023  v =  0.0000  0.0000  0.0000  0.0000  0.0000 -0.0000  0.9986  0.0350 -0.0000  0.0390      0.0000  0.0000  0.0000  0.0000  0.0000  0.0000  0.0000  0.0000  0.0000  0.0000
  o =  0.1059  v =  0.0000  0.0000  0.0000  0.0000  0.0000 -0.9821 -0.0000  0.0000 -0.1884 -0.0000      0.0000  0.0000  0.0000  0.0000  0.0000  0.0000  0.0000  0.0000  0.0000  0.0000
  o =  0.1081  v = -0.9750  0.0000  0.0000 -0.2222 -0.0000  0.0000  0.0000  0.0000  0.0000  0.0000      0.0000  0.0000  0.0000  0.0000  0.0000  0.0000  0.0000  0.0000  0.0000  0.0000
  o =  0.2371  v =  0.0000  0.0000  0.0000  0.0000  0.0000 -0.0000  0.0156 -0.9089  0.0000  0.4167      0.0000  0.0000  0.0000  0.0000  0.0000  0.0000  0.0000  0.0000  0.0000  0.0000
  o =  0.2371  v =  0.0000 -0.0152  0.9104 -0.0000 -0.4135  0.0000  0.0000  0.0000  0.0000  0.0000      0.0000  0.0000  0.0000  0.0000  0.0000  0.0000  0.0000  0.0000  0.0000  0.0000
  o =  0.2557  v = -0.0000 -0.0474  0.4124  0.0000  0.9098  0.0000  0.0000  0.0000  0.0000  0.0000      0.0000  0.0000  0.0000  0.0000  0.0000  0.0000  0.0000  0.0000  0.0000  0.0000
  o =  0.2562  v =  0.0000  0.0000  0.0000  0.0000  0.0000 -0.0000 -0.0501  0.4156  0.0000  0.9082      0.0000  0.0000  0.0000  0.0000  0.0000  0.0000  0.0000  0.0000  0.0000  0.0000
atom =  15  type =  1  l = 2
 
 onsite density matrix
 
spin component  1
 
  0.1065  0.0006 -0.0002  0.0006 -0.0007
  0.0006  0.1001 -0.0004  0.0000 -0.0005
 -0.0002 -0.0004  0.2422 -0.0001  0.0002
  0.0006  0.0000 -0.0001  0.0998  0.0000
 -0.0007 -0.0005  0.0002  0.0000  0.2509
 
spin component  2
 
  0.1064  0.0006 -0.0002  0.0006 -0.0007
  0.0006  0.1001 -0.0004  0.0001 -0.0005
 -0.0002 -0.0004  0.2422 -0.0001  0.0002
  0.0006  0.0001 -0.0001  0.0997 -0.0000
 -0.0007 -0.0005  0.0002 -0.0000  0.2509
 
 occupancies and eigenvectors
 
  o =  0.0997  v =  0.0000  0.0000  0.0000  0.0000  0.0000 -0.0812 -0.0651  0.0003  0.9946 -0.0006      0.0000  0.0000  0.0000  0.0000  0.0000  0.0000  0.0000  0.0000  0.0000  0.0000
  o =  0.0997  v =  0.0956 -0.0170 -0.0004 -0.9953  0.0004  0.0000  0.0000  0.0000  0.0000  0.0000      0.0000  0.0000  0.0000  0.0000  0.0000  0.0000  0.0000  0.0000  0.0000  0.0000
  o =  0.1000  v =  0.0000  0.0000  0.0000  0.0000  0.0000 -0.0992  0.9934  0.0029  0.0570  0.0031      0.0000  0.0000  0.0000  0.0000  0.0000  0.0000  0.0000  0.0000  0.0000  0.0000
  o =  0.1000  v = -0.0812  0.9964  0.0030 -0.0249  0.0032  0.0000  0.0000  0.0000  0.0000  0.0000      0.0000  0.0000  0.0000  0.0000  0.0000  0.0000  0.0000  0.0000  0.0000  0.0000
  o =  0.1065  v =  0.0000  0.0000  0.0000  0.0000  0.0000  0.9917  0.0940  0.0019  0.0872  0.0051      0.0000  0.0000  0.0000  0.0000  0.0000  0.0000  0.0000  0.0000  0.0000  0.0000
  o =  0.1066  v =  0.9921  0.0832  0.0015  0.0938  0.0049  0.0000  0.0000  0.0000  0.0000  0.0000      0.0000  0.0000  0.0000  0.0000  0.0000  0.0000  0.0000  0.0000  0.0000  0.0000
  o =  0.2422  v =  0.0000  0.0000  0.0000  0.0000  0.0000  0.0014  0.0029 -0.9996  0.0006  0.0284      0.0000  0.0000  0.0000  0.0000  0.0000  0.0000  0.0000  0.0000  0.0000  0.0000
  o =  0.2422  v =  0.0011  0.0030 -0.9996  0.0004  0.0287  0.0000  0.0000  0.0000  0.0000  0.0000      0.0000  0.0000  0.0000  0.0000  0.0000  0.0000  0.0000  0.0000  0.0000  0.0000
  o =  0.2510  v = -0.0046 -0.0037  0.0287 -0.0000  0.9996  0.0000  0.0000  0.0000  0.0000  0.0000      0.0000  0.0000  0.0000  0.0000  0.0000  0.0000  0.0000  0.0000  0.0000  0.0000
  o =  0.2510  v =  0.0000  0.0000  0.0000  0.0000  0.0000 -0.0049 -0.0037  0.0284 -0.0001  0.9996      0.0000  0.0000  0.0000  0.0000  0.0000  0.0000  0.0000  0.0000  0.0000  0.0000
atom =  16  type =  1  l = 2
 
 onsite density matrix
 
spin component  1
 
  0.1068 -0.0021 -0.0000  0.0000  0.0000
 -0.0021  0.0956 -0.0000  0.0000  0.0000
 -0.0000 -0.0000  0.2381  0.0086 -0.0149
  0.0000  0.0000  0.0086  0.1105 -0.0118
  0.0000  0.0000 -0.0149 -0.0118  0.2642
 
spin component  2
 
  0.1065 -0.0021 -0.0000  0.0000  0.0000
 -0.0021  0.0953 -0.0000  0.0000  0.0000
 -0.0000 -0.0000  0.2345  0.0070 -0.0096
  0.0000  0.0000  0.0070  0.1089 -0.0088
  0.0000  0.0000 -0.0096 -0.0088  0.2549
 
 occupancies and eigenvectors
 
  o =  0.0949  v =  0.0000  0.0000  0.0000  0.0000  0.0000 -0.1825 -0.9832 -0.0000  0.0001  0.0000      0.0000  0.0000  0.0000  0.0000  0.0000  0.0000  0.0000  0.0000  0.0000  0.0000
  o =  0.0952  v = -0.1806 -0.9836 -0.0000  0.0001  0.0000  0.0000  0.0000  0.0000  0.0000  0.0000      0.0000  0.0000  0.0000  0.0000  0.0000  0.0000  0.0000  0.0000  0.0000  0.0000
  o =  0.1069  v =  0.0000  0.0000  0.0000  0.0000  0.0000  0.9832 -0.1825  0.0002 -0.0032 -0.0002      0.0000  0.0000  0.0000  0.0000  0.0000  0.0000  0.0000  0.0000  0.0000  0.0000
  o =  0.1072  v =  0.9836 -0.1806  0.0001 -0.0021 -0.0002  0.0000  0.0000  0.0000  0.0000  0.0000      0.0000  0.0000  0.0000  0.0000  0.0000  0.0000  0.0000  0.0000  0.0000  0.0000
  o =  0.1081  v =  0.0000  0.0000  0.0000  0.0000  0.0000 -0.0031  0.0005  0.0505 -0.9971 -0.0566      0.0000  0.0000  0.0000  0.0000  0.0000  0.0000  0.0000  0.0000  0.0000  0.0000
  o =  0.1092  v = -0.0021  0.0003  0.0585 -0.9958 -0.0699  0.0000  0.0000  0.0000  0.0000  0.0000      0.0000  0.0000  0.0000  0.0000  0.0000  0.0000  0.0000  0.0000  0.0000  0.0000
  o =  0.2308  v =  0.0000  0.0000  0.0000  0.0000  0.0000 -0.0000  0.0000 -0.9254 -0.0254 -0.3781      0.0000  0.0000  0.0000  0.0000  0.0000  0.0000  0.0000  0.0000  0.0000  0.0000
  o =  0.2314  v =  0.0000 -0.0000  0.9067  0.0237  0.4212  0.0000  0.0000  0.0000  0.0000  0.0000      0.0000  0.0000  0.0000  0.0000  0.0000  0.0000  0.0000  0.0000  0.0000  0.0000
  o =  0.2595  v =  0.0000  0.0000  0.0000  0.0000  0.0000  0.0001  0.0000 -0.3756 -0.0715  0.9240      0.0000  0.0000  0.0000  0.0000  0.0000  0.0000  0.0000  0.0000  0.0000  0.0000
  o =  0.2723  v = -0.0000 -0.0000  0.4178  0.0880 -0.9043  0.0000  0.0000  0.0000  0.0000  0.0000      0.0000  0.0000  0.0000  0.0000  0.0000  0.0000  0.0000  0.0000  0.0000  0.0000
atom =  17  type =  1  l = 2
 
 onsite density matrix
 
spin component  1
 
  0.0601  0.0000  0.0000  0.0000  0.0000
  0.0000  0.0646  0.0000 -0.0000  0.0000
  0.0000  0.0000  0.1379 -0.0000  0.0084
  0.0000 -0.0000 -0.0000  0.8859  0.0000
  0.0000  0.0000  0.0084  0.0000  0.1614
 
spin component  2
 
  0.0530  0.0000  0.0000 -0.0000  0.0000
  0.0000  0.0578  0.0000  0.0000  0.0000
  0.0000  0.0000  0.1290  0.0000  0.0063
 -0.0000  0.0000  0.0000  0.0407 -0.0000
  0.0000  0.0000  0.0063 -0.0000  0.1505
 
 occupancies and eigenvectors
 
  o =  0.0407  v =  0.0000  0.0000  0.0000  0.0000  0.0000  0.0001 -0.0000 -0.0000  1.0000  0.0000      0.0000  0.0000  0.0000  0.0000  0.0000  0.0000  0.0000  0.0000  0.0000  0.0000
  o =  0.0530  v =  0.0000  0.0000  0.0000  0.0000  0.0000  1.0000 -0.0000 -0.0000 -0.0001 -0.0000      0.0000  0.0000  0.0000  0.0000  0.0000  0.0000  0.0000  0.0000  0.0000  0.0000
  o =  0.0578  v =  0.0000  0.0000  0.0000  0.0000  0.0000 -0.0000 -1.0000  0.0000 -0.0000  0.0000      0.0000  0.0000  0.0000  0.0000  0.0000  0.0000  0.0000  0.0000  0.0000  0.0000
  o =  0.0601  v =  1.0000 -0.0000 -0.0000 -0.0000 -0.0000  0.0000  0.0000  0.0000  0.0000  0.0000      0.0000  0.0000  0.0000  0.0000  0.0000  0.0000  0.0000  0.0000  0.0000  0.0000
  o =  0.0646  v = -0.0000 -1.0000  0.0000 -0.0000  0.0000  0.0000  0.0000  0.0000  0.0000  0.0000      0.0000  0.0000  0.0000  0.0000  0.0000  0.0000  0.0000  0.0000  0.0000  0.0000
  o =  0.1273  v =  0.0000  0.0000  0.0000  0.0000  0.0000  0.0000  0.0000  0.9654  0.0000 -0.2607      0.0000  0.0000  0.0000  0.0000  0.0000  0.0000  0.0000  0.0000  0.0000  0.0000
  o =  0.1352  v =  0.0000  0.0000  0.9526  0.0000 -0.3041  0.0000  0.0000  0.0000  0.0000  0.0000      0.0000  0.0000  0.0000  0.0000  0.0000  0.0000  0.0000  0.0000  0.0000  0.0000
  o =  0.1522  v =  0.0000  0.0000  0.0000  0.0000  0.0000 -0.0000 -0.0000 -0.2607  0.0000 -0.9654      0.0000  0.0000  0.0000  0.0000  0.0000  0.0000  0.0000  0.0000  0.0000  0.0000
  o =  0.1641  v =  0.0000  0.0000  0.3041 -0.0000  0.9526  0.0000  0.0000  0.0000  0.0000  0.0000      0.0000  0.0000  0.0000  0.0000  0.0000  0.0000  0.0000  0.0000  0.0000  0.0000
  o =  0.8859  v =  0.0000 -0.0000 -0.0000  1.0000  0.0000  0.0000  0.0000  0.0000  0.0000  0.0000      0.0000  0.0000  0.0000  0.0000  0.0000  0.0000  0.0000  0.0000  0.0000  0.0000
atom =  18  type =  1  l = 2
 
 onsite density matrix
 
spin component  1
 
  0.1068  0.0021  0.0000  0.0000 -0.0000
  0.0021  0.0956 -0.0000 -0.0000  0.0000
  0.0000 -0.0000  0.2381 -0.0086 -0.0149
  0.0000 -0.0000 -0.0086  0.1105  0.0118
 -0.0000  0.0000 -0.0149  0.0118  0.2642
 
spin component  2
 
  0.1065  0.0021  0.0000  0.0000 -0.0000
  0.0021  0.0953 -0.0000 -0.0000  0.0000
  0.0000 -0.0000  0.2345 -0.0070 -0.0096
  0.0000 -0.0000 -0.0070  0.1089  0.0088
 -0.0000  0.0000 -0.0096  0.0088  0.2549
 
 occupancies and eigenvectors
 
  o =  0.0949  v =  0.0000  0.0000  0.0000  0.0000  0.0000  0.1825 -0.9832 -0.0000 -0.0001  0.0000      0.0000  0.0000  0.0000  0.0000  0.0000  0.0000  0.0000  0.0000  0.0000  0.0000
  o =  0.0952  v =  0.1805 -0.9836 -0.0000 -0.0001  0.0000  0.0000  0.0000  0.0000  0.0000  0.0000      0.0000  0.0000  0.0000  0.0000  0.0000  0.0000  0.0000  0.0000  0.0000  0.0000
  o =  0.1069  v =  0.0000  0.0000  0.0000  0.0000  0.0000  0.9832  0.1825 -0.0002 -0.0032  0.0002      0.0000  0.0000  0.0000  0.0000  0.0000  0.0000  0.0000  0.0000  0.0000  0.0000
  o =  0.1072  v =  0.9836  0.1805 -0.0001 -0.0021  0.0002  0.0000  0.0000  0.0000  0.0000  0.0000      0.0000  0.0000  0.0000  0.0000  0.0000  0.0000  0.0000  0.0000  0.0000  0.0000
  o =  0.1081  v =  0.0000  0.0000  0.0000  0.0000  0.0000 -0.0031 -0.0005 -0.0505 -0.9971  0.0566      0.0000  0.0000  0.0000  0.0000  0.0000  0.0000  0.0000  0.0000  0.0000  0.0000
  o =  0.1092  v = -0.0021 -0.0003 -0.0585 -0.9958  0.0699  0.0000  0.0000  0.0000  0.0000  0.0000      0.0000  0.0000  0.0000  0.0000  0.0000  0.0000  0.0000  0.0000  0.0000  0.0000
  o =  0.2308  v =  0.0000  0.0000  0.0000  0.0000  0.0000  0.0000  0.0000 -0.9254  0.0254 -0.3781      0.0000  0.0000  0.0000  0.0000  0.0000  0.0000  0.0000  0.0000  0.0000  0.0000
  o =  0.2314  v = -0.0000 -0.0000  0.9067 -0.0237  0.4212  0.0000  0.0000  0.0000  0.0000  0.0000      0.0000  0.0000  0.0000  0.0000  0.0000  0.0000  0.0000  0.0000  0.0000  0.0000
  o =  0.2595  v =  0.0000  0.0000  0.0000  0.0000  0.0000 -0.0001  0.0000 -0.3756  0.0715  0.9240      0.0000  0.0000  0.0000  0.0000  0.0000  0.0000  0.0000  0.0000  0.0000  0.0000
  o =  0.2723  v =  0.0000 -0.0000  0.4178 -0.0880 -0.9043  0.0000  0.0000  0.0000  0.0000  0.0000      0.0000  0.0000  0.0000  0.0000  0.0000  0.0000  0.0000  0.0000  0.0000  0.0000
atom =  19  type =  1  l = 2
 
 onsite density matrix
 
spin component  1
 
  0.1064 -0.0000 -0.0000  0.0004  0.0000
 -0.0000  0.1007 -0.0006  0.0000 -0.0011
 -0.0000 -0.0006  0.2418 -0.0000  0.0003
  0.0004  0.0000 -0.0000  0.0997  0.0000
  0.0000 -0.0011  0.0003  0.0000  0.2503
 
spin component  2
 
  0.1064  0.0000 -0.0000  0.0004  0.0000
  0.0000  0.1007 -0.0006  0.0000 -0.0011
 -0.0000 -0.0006  0.2418 -0.0000  0.0003
  0.0004  0.0000 -0.0000  0.0997  0.0000
  0.0000 -0.0011  0.0003  0.0000  0.2503
 
 occupancies and eigenvectors
 
  o =  0.0996  v =  0.0000  0.0000  0.0000  0.0000  0.0000  0.0625  0.0000 -0.0000 -0.9980  0.0000      0.0000  0.0000  0.0000  0.0000  0.0000  0.0000  0.0000  0.0000  0.0000  0.0000
  o =  0.0996  v = -0.0632 -0.0000  0.0000  0.9980 -0.0000  0.0000  0.0000  0.0000  0.0000  0.0000      0.0000  0.0000  0.0000  0.0000  0.0000  0.0000  0.0000  0.0000  0.0000  0.0000
  o =  0.1007  v =  0.0000  0.0000  0.0000  0.0000  0.0000  0.0000 -1.0000 -0.0042 -0.0000 -0.0074      0.0000  0.0000  0.0000  0.0000  0.0000  0.0000  0.0000  0.0000  0.0000  0.0000
  o =  0.1007  v =  0.0000  1.0000  0.0042  0.0000  0.0074  0.0000  0.0000  0.0000  0.0000  0.0000      0.0000  0.0000  0.0000  0.0000  0.0000  0.0000  0.0000  0.0000  0.0000  0.0000
  o =  0.1064  v =  0.0000  0.0000  0.0000  0.0000  0.0000  0.9980  0.0000  0.0000  0.0625 -0.0000      0.0000  0.0000  0.0000  0.0000  0.0000  0.0000  0.0000  0.0000  0.0000  0.0000
  o =  0.1064  v =  0.9980 -0.0000  0.0000  0.0632 -0.0000  0.0000  0.0000  0.0000  0.0000  0.0000      0.0000  0.0000  0.0000  0.0000  0.0000  0.0000  0.0000  0.0000  0.0000  0.0000
  o =  0.2418  v =  0.0000  0.0040 -0.9993  0.0000  0.0376  0.0000  0.0000  0.0000  0.0000  0.0000      0.0000  0.0000  0.0000  0.0000  0.0000  0.0000  0.0000  0.0000  0.0000  0.0000
  o =  0.2418  v =  0.0000  0.0000  0.0000  0.0000  0.0000  0.0000  0.0040 -0.9993  0.0000  0.0376      0.0000  0.0000  0.0000  0.0000  0.0000  0.0000  0.0000  0.0000  0.0000  0.0000
  o =  0.2503  v =  0.0000  0.0000  0.0000  0.0000  0.0000 -0.0000  0.0075 -0.0376 -0.0000 -0.9993      0.0000  0.0000  0.0000  0.0000  0.0000  0.0000  0.0000  0.0000  0.0000  0.0000
  o =  0.2503  v = -0.0000  0.0075 -0.0376 -0.0000 -0.9993  0.0000  0.0000  0.0000  0.0000  0.0000      0.0000  0.0000  0.0000  0.0000  0.0000  0.0000  0.0000  0.0000  0.0000  0.0000
atom =  20  type =  1  l = 2
 
 onsite density matrix
 
spin component  1
 
  0.1061  0.0005 -0.0001  0.0003 -0.0011
  0.0005  0.1005 -0.0009  0.0000 -0.0014
 -0.0001 -0.0009  0.2421 -0.0006  0.0006
  0.0003  0.0000 -0.0006  0.0995  0.0008
 -0.0011 -0.0014  0.0006  0.0008  0.2502
 
spin component  2
 
  0.1060  0.0006 -0.0001  0.0003 -0.0011
  0.0006  0.1003 -0.0008  0.0000 -0.0014
 -0.0001 -0.0008  0.2421 -0.0006  0.0006
[...]
      9.50681      1.90085      4.87503         0.002139      0.001300      0.000210
      1.90131      5.70461      4.87503        -0.002150     -0.001280      0.000199
      5.70406      5.71029      4.89856         0.000002     -0.000287     -0.001441
      9.50682      5.70461      4.87503         0.002150     -0.001279      0.000201
      1.89556      9.50680      4.85700         0.000734      0.000015      0.002046
      5.70406      9.50673      4.84448         0.000006     -0.000063     -0.003474
      9.51257      9.50680      4.85700        -0.000738      0.000012      0.002046
      0.00000      1.90058      2.43509         0.000000      0.000425      0.000315
      3.80691      1.89809      2.44126        -0.002553      0.000141     -0.002030
      7.60122      1.89809      2.44126         0.002552      0.000140     -0.002029
      0.00000      5.70485      2.43508         0.000000     -0.000380      0.000307
      3.80691      5.70734      2.44127        -0.002560     -0.000154     -0.002045
      7.60122      5.70734      2.44127         0.002559     -0.000154     -0.002043
      0.00000      9.50679      2.42062        -0.000001      0.000014      0.000919
      3.80544      9.50679      2.44542         0.003067     -0.000002      0.001026
      7.60269      9.50679      2.44542        -0.003066     -0.000002      0.001030
      1.90396     11.40535      7.30842        -0.000422      0.000860      0.001864
      5.70406     11.38400      7.31130        -0.000001     -0.005115     -0.002109
      9.50417     11.40535      7.30841         0.000423      0.000863      0.001865
      1.90347      3.80272      7.31324        -0.001958      0.000013      0.000004
      5.70406      3.80272      7.31562        -0.000000     -0.000009      0.000502
      9.50466      3.80272      7.31324         0.001958      0.000013      0.000003
      1.90397      7.60819      7.30842        -0.000416     -0.000835      0.001858
      5.70406      7.62945      7.31134        -0.000001      0.005084     -0.002127
      9.50415      7.60819      7.30842         0.000417     -0.000837      0.001856
      0.00000      0.00754      2.00283         0.000000     -0.000567      0.000605
      3.78886      0.00479      2.01090         0.000291      0.001972      0.000367
      7.61927      0.00479      2.01089        -0.000291      0.001973      0.000368
      0.00000      3.80271      2.01279        -0.000000      0.000012     -0.003642
      3.80834      3.80270      2.02199         0.002918     -0.000019     -0.002839
      7.59979      3.80270      2.02199        -0.002917     -0.000018     -0.002842
      0.00000      7.59790      2.00282        -0.000000      0.000560      0.000601
      3.78881      7.60063      2.01091         0.000286     -0.002000      0.000379
      7.61932      7.60063      2.01091        -0.000287     -0.002001      0.000380
      1.89800      1.90394      6.88926        -0.000147      0.000722      0.000296
      5.70406      1.91038      6.90801         0.000001      0.000444     -0.000923
      9.51013      1.90394      6.88926         0.000147      0.000721      0.000299
      1.89793      5.70150      6.88928        -0.000212     -0.000694      0.000293
      5.70406      5.69504      6.90800         0.000000     -0.000441     -0.000946
      9.51020      5.70150      6.88928         0.000212     -0.000692      0.000297
      1.90717      9.50676      6.88677        -0.000268      0.000014      0.001045
      5.70406      9.50671      7.00462        -0.000001     -0.000014      0.005064
      9.50096      9.50676      6.88677         0.000268      0.000012      0.001040
      0.00000      1.91167      4.44735         0.000000      0.000529      0.000682
      3.79971      1.90599      4.45554        -0.000621      0.001104     -0.001801
      7.60841      1.90599      4.45554         0.000621      0.001104     -0.001802
      0.00000      5.69401      4.44735         0.000002     -0.000472      0.000675
      3.79971      5.69959      4.45554        -0.000610     -0.001138     -0.001795
      7.60842      5.69959      4.45554         0.000608     -0.001137     -0.001793
     11.40813      9.50664      4.42394        -0.000001     -0.000006      0.006419
      3.73254      9.50684      4.41412        -0.000882      0.000073     -0.001072
      7.67559      9.50684      4.41412         0.000885      0.000081     -0.001072
      1.89791      0.00877      9.32266        -0.000928     -0.001042      0.001704
      5.70406      0.01409      9.34315        -0.000002     -0.000930      0.000454
      9.51022      0.00877      9.32266         0.000931     -0.001041      0.001706
      1.90031      3.80265      9.32825        -0.002715     -0.000007      0.001708
      5.70406      3.80264      9.33703         0.000003     -0.000018     -0.000890
      9.50782      3.80265      9.32825         0.002712     -0.000007      0.001708
      1.89790      7.59662      9.32264        -0.000931      0.001025      0.001701
      5.70406      7.59117      9.34318        -0.000002      0.000930      0.000466
      9.51023      7.59662      9.32263         0.000932      0.001025      0.001702
      1.88361      0.00588      5.29760        -0.001537      0.000718      0.001320
      5.70406      0.02671      5.32234         0.000005      0.000999      0.000556
      9.52452      0.00588      5.29759         0.001536      0.000719      0.001319
      1.89995      3.80273      5.30034         0.001556      0.000009     -0.000604
      5.70406      3.80269      5.30781        -0.000000     -0.000008     -0.007979
      9.50818      3.80273      5.30034        -0.001556      0.000008     -0.000601
      1.88373      7.59957      5.29762        -0.001454     -0.000695      0.001313
      5.70406      7.57864      5.32234        -0.000004     -0.001017      0.000535
      9.52440      7.59957      5.29762         0.001454     -0.000695      0.001313
     11.40813      1.90513      0.41899        -0.000000      0.004192     -0.001952
      3.79688      1.90523      0.42812         0.001771      0.001750     -0.002120
      7.61125      1.90523      0.42811        -0.001771      0.001752     -0.002121
     11.40813      5.70033      0.41897        -0.000000     -0.004193     -0.001958
      3.79684      5.70020      0.42813         0.001765     -0.001769     -0.002113
      7.61129      5.70020      0.42813        -0.001765     -0.001770     -0.002115
     11.40813      9.50676      0.40144        -0.000000      0.000015      0.001595
      3.78660      9.50674      0.40202        -0.000897     -0.000016      0.000507
      7.62153      9.50674      0.40202         0.000897     -0.000016      0.000509
      1.90073      1.90551      2.86061        -0.000228     -0.000017     -0.000257
      5.70406      1.89106      2.86708         0.000000      0.000962     -0.000969
      9.50740      1.90551      2.86061         0.000228     -0.000018     -0.000258
      1.90073      5.69999      2.86060        -0.000225      0.000011     -0.000261
      5.70406      5.71427      2.86706         0.000001     -0.001050     -0.000971
      9.50740      5.69999      2.86060         0.000224      0.000011     -0.000262
      1.88362      9.50688      2.82222         0.000074     -0.000013      0.001157
      5.70406      9.50666      2.76725         0.000002     -0.000016     -0.002248
      9.52451      9.50688      2.82222        -0.000076     -0.000013      0.001158
      0.00000      0.00008      7.72821         0.000000     -0.002383      0.002634
      3.79680      0.01956      7.73791        -0.000982     -0.000673     -0.000065
      7.61132      0.01956      7.73791         0.000982     -0.000672     -0.000064
     11.40813      3.80261      7.73443        -0.000001     -0.000008      0.003094
      3.79925      3.80269      7.74170         0.000338      0.000017     -0.000237
      7.60888      3.80269      7.74170        -0.000337      0.000017     -0.000238
     11.40813      7.60547      7.72819        -0.000001      0.002502      0.002624
      3.79681      7.58567      7.73794        -0.000986      0.000676     -0.000047
      7.61132      7.58567      7.73794         0.000988      0.000675     -0.000047
 -----------------------------------------------------------------------------------
    total drift:                               -0.000002     -0.002568      0.004002


--------------------------------------------------------------------------------------------------------



  FREE ENERGIE OF THE ION-ELECTRON SYSTEM (eV)
  ---------------------------------------------------
  free  energy   TOTEN  =      -862.54908299 eV

  energy  without entropy=     -862.54908299  energy(sigma->0) =     -862.54908299
 


--------------------------------------------------------------------------------------------------------


    POTLOK:  cpu time    0.1753: real time    0.1753


--------------------------------------------------------------------------------------------------------


 writing wavefunctions
     LOOP+:  cpu time  815.5731: real time  815.8975
    4ORBIT:  cpu time    0.0000: real time    0.0000
 


 total charge     
 
# of ion       s       p       d       tot
------------------------------------------
    1        2.227   6.302   1.572  10.101
    2        2.227   6.300   1.569  10.096
    3        2.227   6.300   1.569  10.096
    4        2.228   6.302   1.573  10.103
    5        2.227   6.301   1.571  10.099
    6        2.227   6.301   1.571  10.099
    7        2.227   6.302   1.572  10.101
    8        2.227   6.300   1.569  10.096
    9        2.227   6.300   1.569  10.096
   10        2.227   6.301   1.572  10.099
   11        2.227   6.300   1.575  10.102
   12        2.227   6.301   1.572  10.099
   13        2.227   6.301   1.572  10.099
   14        2.227   6.300   1.575  10.102
   15        2.227   6.301   1.572  10.099
   16        2.228   6.302   1.588  10.117
   17        2.178   6.209   1.752  10.139
   18        2.228   6.302   1.588  10.117
   19        2.227   6.300   1.571  10.097
   20        2.227   6.300   1.570  10.096
   21        2.227   6.300   1.570  10.096
   22        2.227   6.300   1.571  10.097
   23        2.227   6.300   1.570  10.096
   24        2.227   6.300   1.570  10.096
   25        2.230   6.307   1.581  10.118
   26        2.229   6.303   1.573  10.104
   27        2.229   6.303   1.573  10.104
   28        2.227   6.300   1.570  10.097
   29        2.227   6.302   1.574  10.104
   30        2.227   6.300   1.570  10.097
   31        2.227   6.300   1.571  10.099
   32        2.228   6.303   1.575  10.106
   33        2.227   6.300   1.571  10.099
   34        2.227   6.300   1.570  10.097
   35        2.227   6.302   1.574  10.104
   36        2.227   6.300   1.570  10.097
   37        1.595   3.540   0.000   5.135
   38        1.595   3.539   0.000   5.134
   39        1.595   3.539   0.000   5.134
   40        1.595   3.539   0.000   5.134
   41        1.595   3.538   0.000   5.132
   42        1.595   3.538   0.000   5.132
   43        1.595   3.540   0.000   5.135
   44        1.595   3.539   0.000   5.134
   45        1.595   3.539   0.000   5.134
   46        1.595   3.538   0.000   5.133
   47        1.595   3.536   0.000   5.131
   48        1.595   3.538   0.000   5.133
   49        1.595   3.538   0.000   5.133
   50        1.595   3.536   0.000   5.131
   51        1.595   3.538   0.000   5.133
   52        1.594   3.538   0.000   5.132
   53        1.595   3.533   0.000   5.128
   54        1.594   3.538   0.000   5.132
   55        1.595   3.539   0.000   5.134
   56        1.595   3.538   0.000   5.133
   57        1.595   3.538   0.000   5.133
   58        1.595   3.539   0.000   5.134
   59        1.595   3.538   0.000   5.133
   60        1.595   3.538   0.000   5.133
   61        1.596   3.545   0.000   5.141
   62        1.597   3.543   0.000   5.140
   63        1.597   3.543   0.000   5.140
   64        1.595   3.539   0.000   5.134
   65        1.595   3.538   0.000   5.132
   66        1.595   3.539   0.000   5.134
   67        1.595   3.539   0.000   5.133
   68        1.595   3.539   0.000   5.134
   69        1.595   3.539   0.000   5.133
   70        1.595   3.539   0.000   5.134
   71        1.595   3.538   0.000   5.132
   72        1.595   3.539   0.000   5.134
   73        1.595   3.539   0.000   5.134
   74        1.595   3.548   0.000   5.143
   75        1.595   3.539   0.000   5.134
   76        1.595   3.539   0.000   5.134
   77        1.595   3.540   0.000   5.135
   78        1.595   3.539   0.000   5.134
   79        1.595   3.539   0.000   5.134
   80        1.595   3.548   0.000   5.143
   81        1.595   3.539   0.000   5.134
   82        1.595   3.539   0.000   5.134
   83        1.595   3.538   0.000   5.133
   84        1.595   3.538   0.000   5.133
   85        1.595   3.539   0.000   5.134
   86        1.595   3.538   0.000   5.133
   87        1.595   3.538   0.000   5.133
   88        1.595   3.539   0.000   5.134
   89        1.595   3.537   0.000   5.132
   90        1.595   3.537   0.000   5.132
   91        1.595   3.538   0.000   5.133
   92        1.595   3.538   0.000   5.132
   93        1.595   3.538   0.000   5.133
   94        1.595   3.538   0.000   5.133
   95        1.595   3.538   0.000   5.132
   96        1.595   3.538   0.000   5.133
   97        1.596   3.538   0.000   5.134
   98        1.594   3.537   0.000   5.131
   99        1.596   3.538   0.000   5.134
  100        1.595   3.538   0.000   5.133
  101        1.595   3.539   0.000   5.134
  102        1.595   3.539   0.000   5.134
  103        1.595   3.539   0.000   5.133
  104        1.595   3.539   0.000   5.134
  105        1.595   3.539   0.000   5.134
  106        1.595   3.538   0.000   5.133
  107        1.595   3.539   0.000   5.134
  108        1.595   3.539   0.000   5.134
--------------------------------------------------
tot        194.966 481.547  56.789 733.302
 


 magnetization (x)
 
# of ion       s       p       d       tot
------------------------------------------
    1       -0.000   0.000   0.000   0.000
    2        0.000   0.000   0.000   0.000
    3        0.000   0.000   0.000   0.000
    4        0.000   0.000   0.000   0.000
    5        0.000  -0.000   0.000   0.000
    6        0.000  -0.000   0.000   0.000
    7       -0.000   0.000   0.000   0.000
    8        0.000   0.000   0.000   0.000
    9        0.000   0.000   0.000   0.000
   10        0.000  -0.000   0.000   0.000
   11       -0.000  -0.000   0.004   0.004
   12        0.000  -0.000   0.000   0.000
   13        0.000  -0.000   0.000   0.000
   14       -0.000  -0.000   0.004   0.004
   15        0.000  -0.000   0.000   0.000
   16        0.001   0.001   0.020   0.021
   17        0.006   0.008   0.852   0.866
   18        0.001   0.001   0.020   0.021
   19       -0.000  -0.000   0.000   0.000
   20        0.000  -0.000   0.001   0.001
   21        0.000  -0.000   0.001   0.001
   22       -0.000  -0.000   0.000   0.000
   23        0.000  -0.000   0.001   0.001
   24        0.000  -0.000   0.001   0.001
   25       -0.000   0.000   0.002   0.002
   26        0.001   0.000   0.005   0.006
   27        0.001   0.000   0.005   0.006
   28        0.000   0.000   0.001   0.001
   29        0.000  -0.000   0.007   0.007
   30        0.000   0.000   0.001   0.001
   31        0.000   0.000   0.000   0.000
   32       -0.000  -0.000   0.000   0.000
   33        0.000   0.000   0.000   0.000
   34        0.000   0.000   0.001   0.001
   35        0.000  -0.000   0.007   0.007
   36        0.000   0.000   0.001   0.001
   37       -0.000  -0.000   0.000  -0.000
   38       -0.000  -0.000   0.000  -0.000
   39       -0.000  -0.000   0.000  -0.000
   40       -0.000  -0.000   0.000  -0.000
   41       -0.000  -0.000   0.000  -0.000
   42       -0.000  -0.000   0.000  -0.000
   43       -0.000  -0.000   0.000  -0.000
   44       -0.000  -0.000   0.000  -0.000
   45       -0.000  -0.000   0.000  -0.000
   46       -0.000  -0.000   0.000  -0.000
   47       -0.000  -0.001   0.000  -0.001
   48       -0.000  -0.000   0.000  -0.000
   49       -0.000  -0.000   0.000  -0.000
   50       -0.000  -0.001   0.000  -0.001
   51       -0.000  -0.000   0.000  -0.000
   52       -0.000  -0.000   0.000  -0.000
   53       -0.000  -0.000   0.000  -0.000
   54       -0.000  -0.000   0.000  -0.000
   55       -0.000  -0.000   0.000  -0.000
   56       -0.000  -0.000   0.000  -0.000
   57       -0.000  -0.000   0.000  -0.000
   58       -0.000  -0.000   0.000  -0.000
   59       -0.000  -0.000   0.000  -0.000
   60       -0.000  -0.000   0.000  -0.000
   61        0.000  -0.001   0.000  -0.000
   62        0.000  -0.002   0.000  -0.002
   63        0.000  -0.002   0.000  -0.002
   64        0.000   0.000   0.000   0.000
   65       -0.000  -0.000   0.000  -0.000
   66        0.000   0.000   0.000   0.000
   67       -0.000  -0.000   0.000  -0.000
   68       -0.000  -0.000   0.000  -0.000
   69       -0.000  -0.000   0.000  -0.000
   70        0.000   0.000   0.000   0.000
   71       -0.000  -0.000   0.000  -0.000
   72        0.000   0.000   0.000   0.000
   73       -0.000  -0.001   0.000  -0.001
   74       -0.000  -0.007   0.000  -0.008
   75       -0.000  -0.001   0.000  -0.001
   76       -0.000  -0.000   0.000  -0.000
   77       -0.000  -0.001   0.000  -0.001
   78       -0.000  -0.000   0.000  -0.000
   79       -0.000  -0.001   0.000  -0.001
   80       -0.000  -0.007   0.000  -0.008
   81       -0.000  -0.001   0.000  -0.001
   82        0.000  -0.000   0.000  -0.000
   83       -0.000  -0.000   0.000  -0.000
   84       -0.000  -0.000   0.000  -0.000
   85        0.000  -0.000   0.000  -0.000
   86       -0.000  -0.000   0.000  -0.000
   87       -0.000  -0.000   0.000  -0.000
   88       -0.000  -0.000   0.000  -0.000
   89        0.000   0.000   0.000   0.000
   90        0.000   0.000   0.000   0.000
   91       -0.000  -0.000   0.000  -0.000
   92       -0.000  -0.000   0.000  -0.000
   93       -0.000  -0.000   0.000  -0.000
   94       -0.000  -0.000   0.000  -0.000
   95       -0.000  -0.000   0.000  -0.000
   96       -0.000  -0.000   0.000  -0.000
   97        0.000  -0.000   0.000  -0.000
   98       -0.000  -0.001   0.000  -0.002
   99        0.000  -0.000   0.000  -0.000
  100       -0.000  -0.000   0.000  -0.000
  101       -0.000  -0.000   0.000  -0.000
  102       -0.000  -0.000   0.000  -0.000
  103       -0.000  -0.000   0.000  -0.000
  104       -0.000  -0.000   0.000  -0.000
  105       -0.000  -0.000   0.000  -0.000
  106       -0.000  -0.000   0.000  -0.000
  107       -0.000  -0.000   0.000  -0.000
  108       -0.000  -0.000   0.000  -0.000
--------------------------------------------------
tot          0.008  -0.023   0.933   0.919
 
 BZINTS: Fermi energy:  5.671891;865.000000 electrons
         Band energy:***********;  BLOECHL correction:  0.000000

 total amount of memory used by VASP MPI-rank0   121301. kBytes
=======================================================================

   base      :      30000. kBytes
   nonl-proj :       4314. kBytes
   fftplans  :       3336. kBytes
   grid      :       8284. kBytes
   one-center:        155. kBytes
   wavefun   :      75212. kBytes
 
  
  
 General timing and accounting informations for this job:
 ========================================================
  
                  Total CPU time used (sec):      861.513
                            User time (sec):      853.872
                          System time (sec):        7.642
                         Elapsed time (sec):      862.227
  
                   Maximum memory used (kb):      253380.
                   Average memory used (kb):           0.
  
                          Minor page faults:        32926
                          Major page faults:            0
                 Voluntary context switches:           82
