 vasp.5.4.4.18Apr17-6-g9f103f2a35 (build Apr 16 2019 21:13:15) complex          
  
 executed on             OCC_CTRL date 2019.04.21  16:53:49
 running on   44 total cores
 distrk:  each k-point on   44 cores,    1 groups
 distr:  one band on NCORES_PER_BAND=  22 cores,    2 groups


--------------------------------------------------------------------------------------------------------


 INCAR:
 POTCAR:    PAW_PBE Ti_sv 26Sep2005               
 POTCAR:    PAW_PBE O 08Apr2002                   

 ----------------------------------------------------------------------------- 
|                                                                             |
|           W    W    AA    RRRRR   N    N  II  N    N   GGGG   !!!           |
|           W    W   A  A   R    R  NN   N  II  NN   N  G    G  !!!           |
|           W    W  A    A  R    R  N N  N  II  N N  N  G       !!!           |
|           W WW W  AAAAAA  RRRRR   N  N N  II  N  N N  G  GGG   !            |
|           WW  WW  A    A  R   R   N   NN  II  N   NN  G    G                |
|           W    W  A    A  R    R  N    N  II  N    N   GGGG   !!!           |
|                                                                             |
|      For optimal performance we recommend to set                            |
|        NCORE= 4 - approx SQRT( number of cores)                             |
|      NCORE specifies how many cores store one orbital (NPAR=cpu/NCORE).     |
|      This setting can  greatly improve the performance of VASP for DFT.     |
|      The default,   NCORE=1            might be grossly inefficient         |
|      on modern multi-core architectures or massively parallel machines.     |
|      Do your own testing !!!!                                               |
|      Unfortunately you need to use the default for GW and RPA calculations. |
|      (for HF NCORE is supported but not extensively tested yet)             |
|                                                                             |
 ----------------------------------------------------------------------------- 

 POTCAR:    PAW_PBE Ti_sv 26Sep2005               
  local pseudopotential read in
  partial core-charges read in
  partial kinetic energy density read in
  atomic valenz-charges read in
  non local Contribution for L=           0  read in
    real space projection operators read in
  non local Contribution for L=           0  read in
    real space projection operators read in
  non local Contribution for L=           1  read in
    real space projection operators read in
  non local Contribution for L=           1  read in
    real space projection operators read in
  non local Contribution for L=           2  read in
    real space projection operators read in
  non local Contribution for L=           2  read in
    real space projection operators read in
    PAW grid and wavefunctions read in
 
   number of l-projection  operators is LMAX  =           6
   number of lm-projection operators is LMMAX =          18
 
 POTCAR:    PAW_PBE O 08Apr2002                   
  local pseudopotential read in
  partial core-charges read in
  partial kinetic energy density read in
  kinetic energy density of atom read in
  atomic valenz-charges read in
  non local Contribution for L=           0  read in
    real space projection operators read in
  non local Contribution for L=           0  read in
    real space projection operators read in
  non local Contribution for L=           1  read in
    real space projection operators read in
  non local Contribution for L=           1  read in
    real space projection operators read in
    PAW grid and wavefunctions read in
 
   number of l-projection  operators is LMAX  =           4
   number of lm-projection operators is LMMAX =           8
 

 ----------------------------------------------------------------------------- 
|                                                                             |
|  ADVICE TO THIS USER RUNNING 'VASP/VAMP'   (HEAR YOUR MASTER'S VOICE ...):  |
|                                                                             |
|      You have a (more or less) 'large supercell' and for larger cells       |
|      it might be more efficient to use real space projection opertators     |
|      So try LREAL= Auto  in the INCAR   file.                               |
|      Mind:          For very  accurate calculation you might also keep the  |
|      reciprocal projection scheme          (i.e. LREAL=.FALSE.)             |
|                                                                             |
 ----------------------------------------------------------------------------- 

  PAW_PBE Ti_sv 26Sep2005               :
 energy of atom  1       EATOM=-1588.0892
 kinetic energy error for atom=    0.0139 (will be added to EATOM!!)
  PAW_PBE O 08Apr2002                   :
 energy of atom  2       EATOM= -432.3788
 kinetic energy error for atom=    0.1156 (will be added to EATOM!!)
 
  
 Occupation matrix control coded by Prof. Graeme Watson 
 at Trinity College Dublin
  
 Occupation set for the following atoms 
  
 
 POSCAR: generated by phonopy                    
  positions in direct lattice
  velocities in cartesian coordinates
 exchange correlation table for  LEXCH =        8
   RHO(1)=    0.500       N(1)  =     2000
   RHO(2)=  100.500       N(2)  =     4000
 


--------------------------------------------------------------------------------------------------------


 ion  position               nearest neighbor table
   1  0.000  1.000  0.999-  66 1.94  64 1.94  88 1.95  82 1.95  37 2.01 100 2.02
   2  0.334  1.000  1.000-  65 1.94  89 1.94  83 1.95  64 1.96 101 2.01  38 2.01
   3  0.666  1.000  1.000-  65 1.94  90 1.94  84 1.95  66 1.96 102 2.01  39 2.01
   4  0.000  0.333  0.000-  67 1.94  69 1.94  85 1.95  82 1.95  40 2.01 103 2.01
   5  0.333  0.333  0.001-  86 1.94  83 1.94  68 1.95  67 1.95 104 2.01  41 2.01
   6  0.667  0.333  0.001-  87 1.94  84 1.94  68 1.95  69 1.95 105 2.01  42 2.01
   7  0.000  0.667  0.999-  70 1.94  72 1.94  88 1.95  85 1.95  43 2.01 106 2.02
   8  0.334  0.667  1.000-  71 1.94  89 1.94  86 1.95  70 1.96 107 2.01  44 2.01
   9  0.666  0.667  1.000-  71 1.94  90 1.94  87 1.95  72 1.96 108 2.01  45 2.01
  10  0.167  0.167  0.500-  56 1.94  73 1.94  76 1.95  55 1.95  91 2.01  46 2.01
  11  0.500  0.167  0.502-  74 1.89  77 1.94  56 1.96  57 1.96  92 2.03  47 2.03
  12  0.833  0.167  0.500-  57 1.94  75 1.94  78 1.95  55 1.95  93 2.01  48 2.01
  13  0.167  0.500  0.500-  59 1.94  79 1.94  76 1.95  58 1.95  94 2.01  49 2.01
  14  0.500  0.499  0.502-  80 1.89  77 1.94  59 1.96  60 1.96  95 2.03  50 2.03
  15  0.833  0.500  0.500-  60 1.94  81 1.94  78 1.95  58 1.95  96 2.01  51 2.01
  16  0.167  0.833  0.497-  62 1.92  61 1.95  73 1.96  79 1.96  97 2.01  52 2.03
  17  0.500  0.833  0.503-  62 1.99  63 1.99  80 2.02  74 2.02  53 2.08  98 2.16
  18  0.833  0.833  0.497-  63 1.92  61 1.95  75 1.96  81 1.96  99 2.01  54 2.03
  19  1.000  0.167  0.250-  37 1.94  93 1.95  91 1.95  40 1.95  55 2.01  82 2.02
  20  0.334  0.166  0.250-  38 1.94  92 1.94  41 1.95  91 1.95  56 2.01  83 2.01
  21  0.666  0.166  0.250-  39 1.94  92 1.94  42 1.95  93 1.95  57 2.01  84 2.01
  22  1.000  0.500  0.250-  43 1.94  96 1.95  94 1.95  40 1.95  58 2.01  85 2.02
  23  0.334  0.500  0.250-  44 1.94  95 1.94  41 1.95  94 1.95  59 2.01  86 2.01
  24  0.666  0.500  0.250-  45 1.94  95 1.94  42 1.95  96 1.95  60 2.01  87 2.01
  25  1.000  0.833  0.250-  97 1.94  99 1.94  37 1.95  43 1.95  61 2.01  88 2.02
  26  0.335  0.833  0.250-  98 1.90  38 1.95  44 1.95  97 1.98  62 1.99  89 2.03
  27  0.665  0.833  0.250-  98 1.90  39 1.95  45 1.95  99 1.98  63 1.99  90 2.03
  28  0.167  1.000  0.750- 101 1.94  52 1.94 100 1.95  46 1.95  64 2.01  73 2.01
  29  0.500  1.000  0.749-  53 1.93 102 1.96 101 1.96  47 1.96  74 1.97  65 2.04
  30  0.833  1.000  0.750- 102 1.94  54 1.94 100 1.95  48 1.95  66 2.01  75 2.01
  31  0.167  0.333  0.750- 104 1.94  49 1.95  46 1.95 103 1.95  76 2.01  67 2.02
  32  0.500  0.333  0.752-  47 1.93  50 1.93 105 1.95 104 1.95  77 2.00  68 2.02
  33  0.833  0.333  0.750- 105 1.94  51 1.95  48 1.95 103 1.95  78 2.01  69 2.02
  34  0.167  0.667  0.750- 107 1.94  52 1.94 106 1.95  49 1.95  70 2.01  79 2.01
  35  0.500  0.667  0.749-  53 1.93 108 1.96 107 1.96  50 1.96  80 1.97  71 2.04
  36  0.833  0.667  0.750- 108 1.94  54 1.94 106 1.95  51 1.95  72 2.01  81 2.01
  37  1.000  0.000  0.206-  19 1.94  25 1.95   1 2.01
  38  0.332  0.001  0.206-  20 1.94  26 1.95   2 2.01
  39  0.668  0.001  0.206-  21 1.94  27 1.95   3 2.01
  40  0.000  0.333  0.207-  19 1.95  22 1.95   4 2.01
  41  0.333  0.333  0.207-  20 1.95  23 1.95   5 2.01
  42  0.667  0.333  0.207-  21 1.95  24 1.95   6 2.01
  43  1.000  0.666  0.206-  22 1.94  25 1.95   7 2.01
  44  0.332  0.666  0.206-  23 1.94  26 1.95   8 2.01
  45  0.668  0.666  0.206-  24 1.94  27 1.95   9 2.01
  46  0.166  0.167  0.707-  31 1.95  28 1.95  10 2.01
  47  0.500  0.168  0.710-  32 1.93  29 1.96  11 2.03
  48  0.834  0.167  0.707-  33 1.95  30 1.95  12 2.01
  49  0.166  0.500  0.707-  31 1.95  34 1.95  13 2.01
  50  0.500  0.498  0.710-  32 1.93  35 1.96  14 2.03
  51  0.834  0.500  0.707-  33 1.95  36 1.95  15 2.01
  52  0.167  0.833  0.706-  34 1.94  28 1.94  16 2.03
  53  0.500  0.833  0.716-  29 1.93  35 1.93  17 2.08
  54  0.833  0.833  0.706-  36 1.94  30 1.94  18 2.03
  55  0.000  0.167  0.456-  10 1.95  12 1.95  19 2.01
  56  0.333  0.168  0.456-  10 1.94  11 1.96  20 2.01
  57  0.667  0.168  0.456-  12 1.94  11 1.96  21 2.01
  58  1.000  0.500  0.456-  13 1.95  15 1.95  22 2.01
  59  0.333  0.499  0.456-  13 1.94  14 1.96  23 2.01
  60  0.667  0.499  0.456-  15 1.94  14 1.96  24 2.01
  61  1.000  0.833  0.455-  16 1.95  18 1.95  25 2.01
  62  0.331  0.833  0.454-  16 1.92  17 1.99  26 1.99
  63  0.669  0.833  0.454-  18 1.92  17 1.99  27 1.99
  64  0.166  0.000  0.956-   1 1.94   2 1.96  28 2.01
  65  0.500  0.001  0.959-   2 1.94   3 1.94  29 2.04
  66  0.834  0.000  0.956-   1 1.94   3 1.96  30 2.01
  67  0.166  0.333  0.957-   4 1.94   5 1.95  31 2.02
  68  0.500  0.333  0.959-   5 1.95   6 1.95  32 2.02
  69  0.834  0.333  0.957-   4 1.94   6 1.95  33 2.02
  70  0.166  0.666  0.956-   7 1.94   8 1.96  34 2.01
  71  0.500  0.665  0.959-   8 1.94   9 1.94  35 2.04
  72  0.834  0.666  0.956-   7 1.94   9 1.96  36 2.01
  73  0.166  0.000  0.543-  10 1.94  16 1.96  28 2.01
  74  0.500  0.006  0.547-  11 1.89  29 1.97  17 2.02
  75  0.834  0.000  0.543-  12 1.94  18 1.96  30 2.01
  76  0.166  0.333  0.544-  10 1.95  13 1.95  31 2.01
  77  0.500  0.333  0.546-  11 1.94  14 1.94  32 2.00
  78  0.834  0.333  0.544-  12 1.95  15 1.95  33 2.01
  79  0.166  0.666  0.543-  13 1.94  16 1.96  34 2.01
  80  0.500  0.661  0.547-  14 1.89  35 1.97  17 2.02
  81  0.834  0.666  0.543-  15 1.94  18 1.96  36 2.01
  82  0.000  0.167  0.043-   4 1.95   1 1.95  19 2.02
  83  0.333  0.167  0.044-   5 1.94   2 1.95  20 2.01
  84  0.667  0.167  0.044-   6 1.94   3 1.95  21 2.01
  85  0.000  0.500  0.043-   4 1.95   7 1.95  22 2.02
  86  0.333  0.500  0.044-   5 1.94   8 1.95  23 2.01
  87  0.667  0.500  0.044-   6 1.94   9 1.95  24 2.01
  88  1.000  0.833  0.042-   7 1.95   1 1.95  25 2.02
  89  0.332  0.833  0.041-   8 1.94   2 1.94  26 2.03
  90  0.668  0.833  0.041-   9 1.94   3 1.94  27 2.03
  91  0.166  0.167  0.293-  19 1.95  20 1.95  10 2.01
  92  0.500  0.166  0.293-  20 1.94  21 1.94  11 2.03
  93  0.834  0.167  0.293-  19 1.95  21 1.95  12 2.01
  94  0.166  0.500  0.293-  22 1.95  23 1.95  13 2.01
  95  0.500  0.500  0.293-  23 1.94  24 1.94  14 2.03
  96  0.834  0.500  0.293-  22 1.95  24 1.95  15 2.01
  97  0.166  0.833  0.291-  25 1.94  26 1.98  16 2.01
  98  0.500  0.833  0.281-  26 1.90  27 1.90  17 2.16
  99  0.834  0.833  0.291-  25 1.94  27 1.98  18 2.01
 100  0.000  1.000  0.793-  28 1.95  30 1.95   1 2.02
 101  0.333  0.001  0.794-  28 1.94  29 1.96   2 2.01
 102  0.667  0.001  0.794-  30 1.94  29 1.96   3 2.01
 103  0.000  0.333  0.793-  31 1.95  33 1.95   4 2.01
 104  0.333  0.333  0.794-  31 1.94  32 1.95   5 2.01
 105  0.667  0.333  0.794-  33 1.94  32 1.95   6 2.01
 106  0.000  0.667  0.793-  34 1.95  36 1.95   7 2.02
 107  0.333  0.665  0.794-  34 1.94  35 1.96   8 2.01
 108  0.667  0.665  0.794-  36 1.94  35 1.96   9 2.01
 

IMPORTANT INFORMATION: All symmetrisations will be switched off!
NOSYMM: (Re-)initialisation of all symmetry stuff for point group C_1.

 
 
 KPOINTS: TiO2                                    

Automatic generation of k-mesh.
Space group operators:
 irot       det(A)        alpha          n_x          n_y          n_z        tau_x        tau_y        tau_z
    1     1.000000     0.000000     1.000000     0.000000     0.000000     0.000000     0.000000     0.000000
 
 Subroutine IBZKPT returns following result:
 ===========================================
 
 Found      8 irreducible k-points:
 
 Following reciprocal coordinates:
            Coordinates               Weight
  0.000000  0.000000  0.000000      1.000000
  0.500000  0.000000  0.000000      1.000000
  0.000000  0.500000  0.000000      1.000000
  0.500000  0.500000  0.000000      1.000000
  0.000000  0.000000  0.500000      1.000000
  0.500000  0.000000  0.500000      1.000000
  0.000000  0.500000  0.500000      1.000000
  0.500000  0.500000  0.500000      1.000000
 
 Following cartesian coordinates:
            Coordinates               Weight
  0.000000  0.000000  0.000000      1.000000
  0.043828  0.000000  0.000000      1.000000
  0.000000  0.043828  0.000000      1.000000
  0.043828  0.043828  0.000000      1.000000
  0.000000  0.000000  0.051294      1.000000
  0.043828  0.000000  0.051294      1.000000
  0.000000  0.043828  0.051294      1.000000
  0.043828  0.043828  0.051294      1.000000
 
 TETIRR: Found     24 inequivalent tetrahedra from       48


--------------------------------------------------------------------------------------------------------




 Dimension of arrays:
   k-points           NKPTS =      8   k-points in BZ     NKDIM =      8   number of bands    NBANDS=    520
   number of dos      NEDOS =   3000   number of ions     NIONS =    108
   non local maximal  LDIM  =      6   non local SUM 2l+1 LMDIM =     18
   total plane-waves  NPLWV = 409600
   max r-space proj   IRMAX =      1   max aug-charges    IRDMAX=  12733
   dimension x,y,z NGX =    80 NGY =   80 NGZ =   64
   dimension x,y,z NGXF=   160 NGYF=  160 NGZF=  128
   support grid    NGXF=   160 NGYF=  160 NGZF=  128
   ions per type =              36  72
   NGX,Y,Z   is equivalent  to a cutoff of  11.66, 11.66, 10.92 a.u.
   NGXF,Y,Z  is equivalent  to a cutoff of  23.32, 23.32, 21.83 a.u.

 SYSTEM =  TiO2                                    
 POSCAR =  generated by phonopy                    

 Startparameter for this run:
   NWRITE =      1    write-flag & timer
   PREC   = a         normal or accurate (medium, high low for compatibility)
   ISTART =      1    job   : 0-new  1-cont  2-samecut
   ICHARG =      0    charge: 1-file 2-atom 10-const
   ISPIN  =      2    spin polarized calculation?
   LNONCOLLINEAR =      F non collinear calculations
   LSORBIT =      F    spin-orbit coupling
   INIWAV =      1    electr: 0-lowe 1-rand  2-diag
   LASPH  =      F    aspherical Exc in radial PAW
   METAGGA=      F    non-selfconsistent MetaGGA calc.

 Electronic Relaxation 1
   ENCUT  =  400.0 eV  29.40 Ry    5.42 a.u.  18.60 18.60 15.90*2*pi/ulx,y,z
   ENINI  =  400.0     initial cutoff
   ENAUG  =  605.4 eV  augmentation charge cutoff
   NELM   =   2000;   NELMIN=  5; NELMDL=  0     # of ELM steps 
   EDIFF  = 0.1E-04   stopping-criterion for ELM
   LREAL  =      F    real-space projection
   NLSPLINE    = F    spline interpolate recip. space projectors
   LCOMPAT=      F    compatible to vasp.4.4
   GGA_COMPAT  = T    GGA compatible to vasp.4.4-vasp.4.6
   LMAXPAW     = -100 max onsite density
   LMAXMIX     =    4 max onsite mixed and CHGCAR
   VOSKOWN=      0    Vosko Wilk Nusair interpolation
   ROPT   =    0.00000   0.00000
 Ionic relaxation
   EDIFFG = -.1E-01   stopping-criterion for IOM
   NSW    =      0    number of steps for IOM
   NBLOCK =      1;   KBLOCK =      1    inner block; outer block 
   IBRION =     -1    ionic relax: 0-MD 1-quasi-New 2-CG
   NFREE  =      0    steps in history (QN), initial steepest desc. (CG)
   ISIF   =      2    stress and relaxation
   IWAVPR =     10    prediction:  0-non 1-charg 2-wave 3-comb
   ISYM   =      0    0-nonsym 1-usesym 2-fastsym
   LCORR  =      T    Harris-Foulkes like correction to forces

   POTIM  = 0.5000    time-step for ionic-motion
   TEIN   =    0.0    initial temperature
   TEBEG  =    0.0;   TEEND  =   0.0 temperature during run
   SMASS  =  -3.00    Nose mass-parameter (am)
   estimated Nose-frequenzy (Omega)   =  0.10E-29 period in steps =****** mass=  -0.297E-26a.u.
   SCALEE = 1.0000    scale energy and forces
   NPACO  =    256;   APACO  = 16.0  distance and # of slots for P.C.
   PSTRESS=    0.0 pullay stress

  Mass of Ions in am
   POMASS =  47.88 16.00
  Ionic Valenz
   ZVAL   =  12.00  6.00
  Atomic Wigner-Seitz radii
   RWIGS  =  -1.00 -1.00
  virtual crystal weights 
   VCA    =   1.00  1.00
   NELECT =     865.0000    total number of electrons
   NUPDOWN=      -1.0000    fix difference up-down

 DOS related values:
   EMIN   = -15.00;   EMAX   = 15.00  energy-range for DOS
   EFERMI =   0.00
   ISMEAR =    -5;   SIGMA  =   0.20  broadening in eV -4-tet -1-fermi 0-gaus

 Electronic relaxation 2 (details)
   IALGO  =     38    algorithm
   LDIAG  =      T    sub-space diagonalisation (order eigenvalues)
   LSUBROT=      F    optimize rotation matrix (better conditioning)
   TURBO    =      0    0=normal 1=particle mesh
   IRESTART =      0    0=no restart 2=restart with 2 vectors
   NREBOOT  =      0    no. of reboots
   NMIN     =      0    reboot dimension
   EREF     =   0.00    reference energy to select bands
   IMIX   =      4    mixing-type and parameters
     AMIX     =   0.40;   BMIX     =  1.00
     AMIX_MAG =   1.60;   BMIX_MAG =  1.00
     AMIN     =   0.10
     WC   =   100.;   INIMIX=   1;  MIXPRE=   1;  MAXMIX= -45

 Intra band minimization:
   WEIMIN = 0.0000     energy-eigenvalue tresh-hold
   EBREAK =  0.48E-08  absolut break condition
   DEPER  =   0.30     relativ break condition  

   TIME   =   0.40     timestep for ELM

  volume/ion in A,a.u.               =      11.75        79.27
  Fermi-wavevector in a.u.,A,eV,Ry     =   1.440906  2.722918 28.248568  2.076211
  Thomas-Fermi vector in A             =   2.559598
 
 Write flags
   LWAVE        =      T    write WAVECAR
   LDOWNSAMPLE  =      F    k-point downsampling of WAVECAR
   LCHARG       =      T    write CHGCAR
   LVTOT        =      F    write LOCPOT, total local potential
   LVHAR        =      F    write LOCPOT, Hartree potential only
   LELF         =      F    write electronic localiz. function (ELF)
   LORBIT       =     11    0 simple, 1 ext, 2 COOP (PROOUT), +10 PAW based schemes


 Dipole corrections
   LMONO  =      F    monopole corrections only (constant potential shift)
   LDIPOL =      F    correct potential (dipole corrections)
   IDIPOL =      0    1-x, 2-y, 3-z, 4-all directions 
   EPSILON=  1.0000000 bulk dielectric constant

 LDA+U is selected, type is set to LDAUTYPE =  2
   angular momentum for each species LDAUL =     2    2
   U (eV)           for each species LDAUU =   4.2  0.0
   J (eV)           for each species LDAUJ =   0.0  0.0
 Exchange correlation treatment:
   GGA     =    --    GGA type
   LEXCH   =     8    internal setting for exchange type
   VOSKOWN=      0    Vosko Wilk Nusair interpolation
   LHFCALC =     F    Hartree Fock is set to
   LHFONE  =     F    Hartree Fock one center treatment
   AEXX    =    0.0000 exact exchange contribution

 Linear response parameters
   LEPSILON=     F    determine dielectric tensor
   LRPA    =     F    only Hartree local field effects (RPA)
   LNABLA  =     F    use nabla operator in PAW spheres
   LVEL    =     F    velocity operator in full k-point grid
   LINTERFAST=   F  fast interpolation
   KINTER  =     0    interpolate to denser k-point grid
   CSHIFT  =0.1000    complex shift for real part using Kramers Kronig
   OMEGAMAX=  -1.0    maximum frequency
   DEG_THRESHOLD= 0.2000000E-02 threshold for treating states as degnerate
   RTIME   =   -0.100 relaxation time in fs
  (WPLASMAI=    0.000 imaginary part of plasma frequency in eV, 0.658/RTIME)
   DFIELD  = 0.0000000 0.0000000 0.0000000 field for delta impulse in time
 
 Orbital magnetization related:
   ORBITALMAG=     F  switch on orbital magnetization
   LCHIMAG   =     F  perturbation theory with respect to B field
   DQ        =  0.001000  dq finite difference perturbation B field
   LLRAUG    =     F  two centre corrections for induced B field



--------------------------------------------------------------------------------------------------------


 Static calculation
 charge density and potential will be updated during run
 spin polarized calculation
 Variant of blocked Davidson
 Davidson routine will perform the subspace rotation
 perform sub-space diagonalisation
    after iterative eigenvector-optimisation
 modified Broyden-mixing scheme, WC =      100.0
 initial mixing is a Kerker type mixing with AMIX =  0.4000 and BMIX =      1.0000
 Hartree-type preconditioning will be used
 using additional bands           87
 reciprocal scheme for non local part
 use partial core corrections
 calculate Harris-corrections to forces 
   (improved forces if not selfconsistent)
 use gradient corrections 
 use of overlap-Matrix (Vanderbilt PP)
 Fermi weights with tetrahedron method with Bloechl corrections


--------------------------------------------------------------------------------------------------------


  energy-cutoff  :      400.00
  volume of cell :     1268.63
      direct lattice vectors                 reciprocal lattice vectors
    11.408128739  0.000000000  0.000000000     0.087656795  0.000000000  0.000000000
     0.000000000 11.408128739  0.000000000     0.000000000  0.087656795  0.000000000
     0.000000000  0.000000000  9.747752190     0.000000000  0.000000000  0.102587754

  length of vectors
    11.408128739 11.408128739  9.747752190     0.087656795  0.087656795  0.102587754


 
 old parameters found on file WAVECAR:
  energy-cutoff  :      400.00
  volume of cell :     1268.63
      direct lattice vectors                 reciprocal lattice vectors
    11.408128739  0.000000000  0.000000000     0.087656795  0.000000000  0.000000000
     0.000000000 11.408128739  0.000000000     0.000000000  0.087656795  0.000000000
     0.000000000  0.000000000  9.747752190     0.000000000  0.000000000  0.102587754

  length of vectors

 
 k-points in units of 2pi/SCALE and weight: TiO2                                    
   0.00000000  0.00000000  0.00000000       0.125
   0.04382840  0.00000000  0.00000000       0.125
   0.00000000  0.04382840  0.00000000       0.125
   0.04382840  0.04382840  0.00000000       0.125
   0.00000000  0.00000000  0.05129388       0.125
   0.04382840  0.00000000  0.05129388       0.125
   0.00000000  0.04382840  0.05129388       0.125
   0.04382840  0.04382840  0.05129388       0.125
 
 k-points in reciprocal lattice and weights: TiO2                                    
   0.00000000  0.00000000  0.00000000       0.125
   0.50000000  0.00000000  0.00000000       0.125
   0.00000000  0.50000000  0.00000000       0.125
   0.50000000  0.50000000  0.00000000       0.125
   0.00000000  0.00000000  0.50000000       0.125
   0.50000000  0.00000000  0.50000000       0.125
   0.00000000  0.50000000  0.50000000       0.125
   0.50000000  0.50000000  0.50000000       0.125
 
 position of ions in fractional coordinates (direct lattice) 
   0.00000000  0.99994183  0.99938546
   0.33359614  0.99988421  0.99992880
   0.66640386  0.99988419  0.99992883
   0.00000000  0.33333549  0.00008899
   0.33319936  0.33333422  0.00058475
   0.66680064  0.33333422  0.00058474
   0.00000000  0.66672594  0.99938436
   0.33359496  0.66677997  0.99992892
   0.66640504  0.66677999  0.99992895
   0.16672952  0.16665885  0.49988222
   0.50000000  0.16716674  0.50173550
   0.83327047  0.16665886  0.49988222
   0.16672840  0.50001083  0.49988179
   0.49999999  0.49949892  0.50173556
   0.83327159  0.50001082  0.49988179
   0.16720412  0.83333425  0.49745338
   0.49999990  0.83333125  0.50302405
   0.83279583  0.83333427  0.49745345
   1.00000000  0.16651843  0.24980382
   0.33357929  0.16645393  0.25020037
   0.66642072  0.16645393  0.25020036
   1.00000000  0.50015035  0.24980325
   0.33357991  0.50021440  0.25020130
   0.66642009  0.50021440  0.25020129
   0.99999999  0.83333582  0.24952897
   0.33546010  0.83333407  0.24990453
   0.66453991  0.83333409  0.24990467
   0.16692825  0.99963080  0.74960070
   0.50000001  0.99974705  0.74918457
   0.83307175  0.99963082  0.74960073
   0.16672254  0.33333423  0.75013753
   0.50000000  0.33333185  0.75164423
   0.83327747  0.33333423  0.75013752
   0.16692882  0.66703497  0.74960097
   0.50000001  0.66690977  0.74918810
   0.83307118  0.66703496  0.74960099
   1.00000000  0.00030183  0.20584404
   0.33160007  0.00052718  0.20617323
   0.66839993  0.00052718  0.20617323
   0.00000000  0.33333345  0.20654844
   0.33317337  0.33333281  0.20711394
   0.66682663  0.33333281  0.20711392
   1.00000000  0.66636831  0.20584291
   0.33159778  0.66613997  0.20617321
   0.66840221  0.66613999  0.20617323
   0.16632943  0.16671854  0.70652208
   0.49999998  0.16821560  0.71045813
   0.83367057  0.16671856  0.70652208
   0.16632703  0.49994969  0.70652508
   0.50000000  0.49844872  0.71045750
   0.83367297  0.49994969  0.70652507
   0.16744479  0.83333262  0.70591676
   0.50000001  0.83332835  0.71612410
   0.83255523  0.83333262  0.70591684
   0.00000000  0.16685711  0.45629707
   0.33283149  0.16816190  0.45649250
   0.66716852  0.16816192  0.45649246
   1.00000000  0.49982364  0.45629602
   0.33283133  0.49852041  0.45649212
   0.66716866  0.49852043  0.45649211
   1.00000000  0.83332513  0.45547917
   0.33098813  0.83332861  0.45398270
   0.66901186  0.83332887  0.45398278
   0.16633243  0.00049096  0.95613547
   0.50000000  0.00140310  0.95878877
   0.83366757  0.00049098  0.95613548
   0.16630463  0.33332843  0.95697965
   0.50000000  0.33332734  0.95878734
   0.83369538  0.33332843  0.95697962
   0.16633135  0.66617575  0.95613183
   0.50000000  0.66524823  0.95879228
   0.83366865  0.66617572  0.95613183
   0.16624235  0.00024953  0.54295187
   0.50000018  0.00614832  0.54719594
   0.83375769  0.00024955  0.54295192
   0.16585307  0.33333452  0.54371870
   0.50000002  0.33333251  0.54614819
   0.83414693  0.33333452  0.54371866
   0.16624240  0.66641899  0.54295363
   0.49999993  0.66051709  0.54719900
   0.83375759  0.66641900  0.54295365
   0.00000000  0.16680141  0.04306815
   0.33257207  0.16696327  0.04355868
   0.66742793  0.16696326  0.04355866
   0.00000000  0.49986868  0.04306656
   0.33256866  0.49970443  0.04355901
   0.66743133  0.49970444  0.04355900
   0.99999999  0.83333272  0.04216308
   0.33206357  0.83333102  0.04147449
   0.66793645  0.83333102  0.04147452
   0.16644220  0.16696250  0.29325776
   0.50000000  0.16631426  0.29345422
   0.83355781  0.16696249  0.29325774
   0.16644227  0.49971312  0.29325722
   0.50000000  0.50035623  0.29345353
   0.83355773  0.49971312  0.29325721
   0.16588441  0.83333652  0.29134257
   0.49999999  0.83332891  0.28134543
   0.83411558  0.83333650  0.29134263
   0.00000000  0.99965704  0.79264707
   0.33289211  0.00122004  0.79371987
   0.66710789  0.00122004  0.79371988
   0.00000000  0.33332596  0.79347969
   0.33268319  0.33332938  0.79449498
   0.66731681  0.33332938  0.79449495
   0.00000001  0.66702243  0.79264587
   0.33289292  0.66543503  0.79372267
   0.66710707  0.66543503  0.79372265
 
 position of ions in cartesian coordinates  (Angst):
   0.00000001 11.40746512  9.74176184
   3.80570772 11.40680776  9.74705819
   7.60242103 11.40680751  9.74705841
   0.00000001  3.80273415  0.00086744
   3.80118117  3.80271971  0.00570001
   7.60694760  3.80271968  0.00569985
   0.00000001  7.60609531  9.74175107
   3.80569425  7.60671174  9.74705934
   7.60243446  7.60671201  9.74705958
   1.90207183  1.90126567  4.87272802
   5.70406439  1.90705964  4.89079329
   9.50605683  1.90126567  4.87272801
   1.90205908  5.70418788  4.87272382
   5.70406431  5.69834796  4.89079386
   9.50606962  5.70418786  4.87272382
   1.90748614  9.50678443  4.84905224
   5.70406323  9.50675014  4.90335379
   9.50064203  9.50678459  4.84905298
  11.40812873  1.89966363  2.43502569
   3.80551547  1.89892783  2.43889120
   7.60261332  1.89892783  2.43889114
  11.40812871  5.70577954  2.43502017
   3.80552260  5.70651026  2.43890025
   7.60260614  5.70651026  2.43890016
  11.40812867  9.50680235  2.43234661
   3.82697203  9.50678241  2.43600739
   7.58115687  9.50678254  2.43600875
   1.90433894 11.40391689  7.30692191
   5.70406448 11.40524300  7.30286555
   9.50378974 11.40391707  7.30692211
   1.90199215  3.80271977  7.31215477
   5.70406440  3.80269266  7.32684171
   9.50613662  3.80271980  7.31215467
   1.90434545  7.60962081  7.30692448
   5.70406443  7.60819255  7.30289990
   9.50378331  7.60962069  7.30692470
  11.40812869  0.00344331  2.00651674
   3.78293627  0.00601418  2.00972560
   7.62519245  0.00601411  2.00972560
   0.00000001  3.80271087  2.01338296
   3.80088471  3.80270360  2.01889539
   7.60724404  3.80270360  2.01889518
  11.40812871  7.60201544  2.00650570
   3.78291019  7.59941056  2.00972534
   7.62521850  7.59941071  2.00972555
   1.89750758  1.90194657  6.88700214
   5.70406414  1.91902519  6.92536975
   9.51062117  1.90194678  6.88700217
   1.89748016  5.70349048  6.88703137
   5.70406442  5.68636713  6.92536364
   9.51064862  5.70349037  6.88703130
   1.91023167  9.50676580  6.88110160
   5.70406449  9.50671714  6.98060024
   9.49789720  9.50676582  6.88110247
   0.00000001  1.90352736  4.44787075
   3.79698451  1.91841255  4.44977575
   7.61114439  1.91841285  4.44977541
  11.40812873  5.70205241  4.44786051
   3.79698268  5.68718498  4.44977202
   7.61114597  5.68718529  4.44977192
  11.40812872  9.50668034  4.43989807
   3.77595519  9.50672005  4.42531087
   7.63217341  9.50672302  4.42531166
   1.89754179  0.00560088  9.32017167
   5.70406436  0.01600675  9.34603529
   9.51058697  0.00560115  9.32017170
   1.89722459  3.80265362  9.32840044
   5.70406436  3.80264120  9.34602136
   9.51090418  3.80265361  9.32840018
   1.89752944  7.59981870  9.32013614
   5.70406436  7.58923744  9.34606954
   9.51059928  7.59981842  9.32013613
   1.89651417  0.00284668  5.29256031
   5.70406643  0.07014081  5.33393039
   9.51161502  0.00284693  5.29256078
   1.89207317  3.80272307  5.30003513
   5.70406454  3.80270022  5.32371724
   9.51605557  3.80272310  5.30003475
   1.89651466  7.60259367  5.29257743
   5.70406353  7.53526394  5.33396025
   9.51161389  7.60259371  5.29257765
   0.00000004  1.90289193  0.41981765
   3.79402497  1.90473843  0.42459925
   7.61410373  1.90473837  0.42459905
   0.00000003  5.70256628  0.41980214
   3.79398613  5.70069247  0.42460247
   7.61414258  5.70069255  0.42460230
  11.40812859  9.50676696  0.41099528
   3.78822394  9.50674758  0.40428303
   7.61990497  9.50674760  0.40428331
   1.89879401  1.90472964  2.85860393
   5.70406435  1.89733445  2.86051898
   9.50933480  1.90472963  2.85860376
   1.89879486  5.70079161  2.85859874
   5.70406434  5.70812832  2.86051224
   9.50933386  5.70079160  2.85859863
   1.89243075  9.50681026  2.83993513
   5.70406424  9.50672349  2.74248551
   9.51569793  9.50681002  2.83993573
   0.00000004 11.40421625  7.72652718
   3.79767602  0.01391836  7.73698460
   7.61045269  0.01391833  7.73698471
   0.00000006  3.80262547  7.73464340
   3.79529262  3.80266451  7.74454020
   7.61283609  3.80266448  7.74453991
   0.00000007  7.60947777  7.72651550
   3.79768532  7.59136848  7.73701186
   7.61044338  7.59136846  7.73701172
 


--------------------------------------------------------------------------------------------------------


 k-point  1 :   0.0000 0.0000 0.0000  plane waves:   23091
 k-point  2 :   0.5000 0.0000 0.0000  plane waves:   23010
 k-point  3 :   0.0000 0.5000 0.0000  plane waves:   23010
 k-point  4 :   0.5000 0.5000 0.0000  plane waves:   22996
 k-point  5 :   0.0000 0.0000 0.5000  plane waves:   23024
 k-point  6 :   0.5000 0.0000 0.5000  plane waves:   23052
 k-point  7 :   0.0000 0.5000 0.5000  plane waves:   23052
 k-point  8 :   0.5000 0.5000 0.5000  plane waves:   23032

 maximum and minimum number of plane-waves per node :      1074     1020

 maximum number of plane-waves:     23091
 maximum index in each direction: 
   IXMAX=   18   IYMAX=   18   IZMAX=   15
   IXMIN=  -19   IYMIN=  -19   IZMIN=  -16


 parallel 3D FFT for wavefunctions:
    minimum data exchange during FFTs selected (reduces bandwidth)
 parallel 3D FFT for charge:
    minimum data exchange during FFTs selected (reduces bandwidth)


 total amount of memory used by VASP MPI-rank0   121301. kBytes
=======================================================================

   base      :      30000. kBytes
   nonl-proj :       4314. kBytes
   fftplans  :       3336. kBytes
   grid      :       8284. kBytes
   one-center:        155. kBytes
   wavefun   :      75212. kBytes
 
     INWAV:  cpu time   12.6590: real time   12.6623
 Broyden mixing: mesh for mixing (old mesh)
   NGX = 37   NGY = 37   NGZ = 31
  (NGX  =160   NGY  =160   NGZ  =128)
  gives a total of  42439 points

 charge density for first step will be calculated from the start-wavefunctions


--------------------------------------------------------------------------------------------------------


 Maximum index for augmentation-charges          626 (set IRDMAX)


--------------------------------------------------------------------------------------------------------


 initial charge from wavefunction
 First call to EWALD:  gamma=   0.164
 Maximum number of real-space cells 3x 3x 3
 Maximum number of reciprocal cells 3x 3x 3

    FEWALD:  cpu time    0.0035: real time    0.0035


--------------------------------------- Iteration      1(   1)  ---------------------------------------


    POTLOK:  cpu time    0.1772: real time    0.1777
    SETDIJ:  cpu time    0.0232: real time    0.0232
atom =   1  type =  1  l = 2
 
 onsite density matrix
 
spin component  1
 
  0.1062 -0.0000 -0.0000 -0.0004 -0.0000
 -0.0000  0.0990  0.0003  0.0000 -0.0000
 -0.0000  0.0003  0.2422 -0.0000 -0.0012
 -0.0004  0.0000 -0.0000  0.1007  0.0000
 -0.0000 -0.0000 -0.0012  0.0000  0.2509
 
spin component  2
 
  0.1062 -0.0000  0.0000 -0.0004 -0.0000
 -0.0000  0.0990  0.0003  0.0000 -0.0000
  0.0000  0.0003  0.2422 -0.0000 -0.0012
 -0.0004  0.0000 -0.0000  0.1007  0.0000
 -0.0000 -0.0000 -0.0012  0.0000  0.2509
 
 occupancies and eigenvectors
 
  o =  0.0990  v =  0.0000  0.0000  0.0000  0.0000  0.0000  0.0000  1.0000 -0.0020  0.0000  0.0003      0.0000  0.0000  0.0000  0.0000  0.0000  0.0000  0.0000  0.0000  0.0000  0.0000
  o =  0.0990  v =  0.0000  1.0000 -0.0020 -0.0000  0.0003  0.0000  0.0000  0.0000  0.0000  0.0000      0.0000  0.0000  0.0000  0.0000  0.0000  0.0000  0.0000  0.0000  0.0000  0.0000
  o =  0.1007  v =  0.0000  0.0000  0.0000  0.0000  0.0000 -0.0755  0.0000 -0.0000 -0.9971  0.0000      0.0000  0.0000  0.0000  0.0000  0.0000  0.0000  0.0000  0.0000  0.0000  0.0000
  o =  0.1007  v = -0.0754 -0.0000 -0.0000 -0.9972  0.0000  0.0000  0.0000  0.0000  0.0000  0.0000      0.0000  0.0000  0.0000  0.0000  0.0000  0.0000  0.0000  0.0000  0.0000  0.0000
  o =  0.1062  v =  0.0000  0.0000  0.0000  0.0000  0.0000  0.9971 -0.0000 -0.0000 -0.0755  0.0000      0.0000  0.0000  0.0000  0.0000  0.0000  0.0000  0.0000  0.0000  0.0000  0.0000
  o =  0.1062  v =  0.9972 -0.0000 -0.0000 -0.0754  0.0000  0.0000  0.0000  0.0000  0.0000  0.0000      0.0000  0.0000  0.0000  0.0000  0.0000  0.0000  0.0000  0.0000  0.0000  0.0000
  o =  0.2421  v =  0.0000  0.0000  0.0000  0.0000  0.0000  0.0000 -0.0019 -0.9913  0.0000 -0.1313      0.0000  0.0000  0.0000  0.0000  0.0000  0.0000  0.0000  0.0000  0.0000  0.0000
  o =  0.2421  v =  0.0000 -0.0019 -0.9913  0.0000 -0.1315  0.0000  0.0000  0.0000  0.0000  0.0000      0.0000  0.0000  0.0000  0.0000  0.0000  0.0000  0.0000  0.0000  0.0000  0.0000
  o =  0.2510  v = -0.0000 -0.0006 -0.1315  0.0000  0.9913  0.0000  0.0000  0.0000  0.0000  0.0000      0.0000  0.0000  0.0000  0.0000  0.0000  0.0000  0.0000  0.0000  0.0000  0.0000
  o =  0.2510  v =  0.0000  0.0000  0.0000  0.0000  0.0000 -0.0000 -0.0006 -0.1313  0.0000  0.9913      0.0000  0.0000  0.0000  0.0000  0.0000  0.0000  0.0000  0.0000  0.0000  0.0000
atom =   2  type =  1  l = 2
 
 onsite density matrix
 
spin component  1
 
  0.1059 -0.0009 -0.0003 -0.0007  0.0002
 -0.0009  0.0995 -0.0002  0.0000 -0.0001
 -0.0003 -0.0002  0.2433 -0.0003 -0.0000
 -0.0007  0.0000 -0.0003  0.0998 -0.0000
  0.0002 -0.0001 -0.0000 -0.0000  0.2496
 
spin component  2
 
  0.1059 -0.0009 -0.0003 -0.0007  0.0002
 -0.0009  0.0995 -0.0002  0.0000 -0.0000
 -0.0003 -0.0002  0.2432 -0.0003 -0.0000
 -0.0007  0.0000 -0.0003  0.0996 -0.0001
  0.0002 -0.0000 -0.0000 -0.0001  0.2496
 
 occupancies and eigenvectors
 
  o =  0.0994  v =  0.0000  0.0000  0.0000  0.0000  0.0000  0.1619  0.9276  0.0021  0.3367  0.0003      0.0000  0.0000  0.0000  0.0000  0.0000  0.0000  0.0000  0.0000  0.0000  0.0000
  o =  0.0994  v =  0.1511  0.9690  0.0019  0.1955  0.0002  0.0000  0.0000  0.0000  0.0000  0.0000      0.0000  0.0000  0.0000  0.0000  0.0000  0.0000  0.0000  0.0000  0.0000  0.0000
  o =  0.0996  v =  0.0000  0.0000  0.0000  0.0000  0.0000 -0.0591  0.3497 -0.0013 -0.9350 -0.0003      0.0000  0.0000  0.0000  0.0000  0.0000  0.0000  0.0000  0.0000  0.0000  0.0000
  o =  0.0997  v = -0.0831  0.2095 -0.0019 -0.9743 -0.0001  0.0000  0.0000  0.0000  0.0000  0.0000      0.0000  0.0000  0.0000  0.0000  0.0000  0.0000  0.0000  0.0000  0.0000  0.0000
  o =  0.1061  v =  0.9850 -0.1310  0.0020 -0.1122 -0.0013  0.0000  0.0000  0.0000  0.0000  0.0000      0.0000  0.0000  0.0000  0.0000  0.0000  0.0000  0.0000  0.0000  0.0000  0.0000
  o =  0.1061  v =  0.0000  0.0000  0.0000  0.0000  0.0000  0.9850 -0.1315  0.0020 -0.1114 -0.0014      0.0000  0.0000  0.0000  0.0000  0.0000  0.0000  0.0000  0.0000  0.0000  0.0000
  o =  0.2432  v =  0.0000  0.0000  0.0000  0.0000  0.0000 -0.0024 -0.0012  1.0000 -0.0018  0.0036      0.0000  0.0000  0.0000  0.0000  0.0000  0.0000  0.0000  0.0000  0.0000  0.0000
  o =  0.2433  v = -0.0024 -0.0012  1.0000 -0.0020  0.0061  0.0000  0.0000  0.0000  0.0000  0.0000      0.0000  0.0000  0.0000  0.0000  0.0000  0.0000  0.0000  0.0000  0.0000  0.0000
  o =  0.2496  v =  0.0000  0.0000  0.0000  0.0000  0.0000  0.0013 -0.0003 -0.0036 -0.0005  1.0000      0.0000  0.0000  0.0000  0.0000  0.0000  0.0000  0.0000  0.0000  0.0000  0.0000
  o =  0.2496  v =  0.0013 -0.0004 -0.0061 -0.0003  1.0000  0.0000  0.0000  0.0000  0.0000  0.0000      0.0000  0.0000  0.0000  0.0000  0.0000  0.0000  0.0000  0.0000  0.0000  0.0000
atom =   3  type =  1  l = 2
 
 onsite density matrix
 
spin component  1
 
  0.1059  0.0009  0.0003 -0.0007 -0.0002
  0.0009  0.0995 -0.0002 -0.0000 -0.0001
  0.0003 -0.0002  0.2433  0.0003 -0.0000
 -0.0007 -0.0000  0.0003  0.0998  0.0000
 -0.0002 -0.0001 -0.0000  0.0000  0.2496
 
spin component  2
 
  0.1059  0.0009  0.0003 -0.0007 -0.0002
  0.0009  0.0995 -0.0002 -0.0000 -0.0000
  0.0003 -0.0002  0.2432  0.0003 -0.0000
 -0.0007 -0.0000  0.0003  0.0996  0.0001
 -0.0002 -0.0000 -0.0000  0.0001  0.2496
 
 occupancies and eigenvectors
 
  o =  0.0994  v =  0.0000  0.0000  0.0000  0.0000  0.0000  0.1619 -0.9276 -0.0021  0.3366 -0.0003      0.0000  0.0000  0.0000  0.0000  0.0000  0.0000  0.0000  0.0000  0.0000  0.0000
  o =  0.0994  v =  0.1511 -0.9690 -0.0019  0.1954 -0.0002  0.0000  0.0000  0.0000  0.0000  0.0000      0.0000  0.0000  0.0000  0.0000  0.0000  0.0000  0.0000  0.0000  0.0000  0.0000
  o =  0.0996  v =  0.0000  0.0000  0.0000  0.0000  0.0000  0.0591  0.3496 -0.0013  0.9350 -0.0003      0.0000  0.0000  0.0000  0.0000  0.0000  0.0000  0.0000  0.0000  0.0000  0.0000
  o =  0.0997  v =  0.0831  0.2095 -0.0019  0.9743 -0.0001  0.0000  0.0000  0.0000  0.0000  0.0000      0.0000  0.0000  0.0000  0.0000  0.0000  0.0000  0.0000  0.0000  0.0000  0.0000
  o =  0.1061  v =  0.9850  0.1310 -0.0020 -0.1122  0.0013  0.0000  0.0000  0.0000  0.0000  0.0000      0.0000  0.0000  0.0000  0.0000  0.0000  0.0000  0.0000  0.0000  0.0000  0.0000
  o =  0.1061  v =  0.0000  0.0000  0.0000  0.0000  0.0000  0.9850  0.1315 -0.0020 -0.1114  0.0014      0.0000  0.0000  0.0000  0.0000  0.0000  0.0000  0.0000  0.0000  0.0000  0.0000
  o =  0.2432  v =  0.0000  0.0000  0.0000  0.0000  0.0000 -0.0024  0.0012 -1.0000 -0.0018 -0.0036      0.0000  0.0000  0.0000  0.0000  0.0000  0.0000  0.0000  0.0000  0.0000  0.0000
  o =  0.2433  v = -0.0024  0.0012 -1.0000 -0.0020 -0.0061  0.0000  0.0000  0.0000  0.0000  0.0000      0.0000  0.0000  0.0000  0.0000  0.0000  0.0000  0.0000  0.0000  0.0000  0.0000
  o =  0.2496  v =  0.0000  0.0000  0.0000  0.0000  0.0000  0.0013  0.0003  0.0036 -0.0005 -1.0000      0.0000  0.0000  0.0000  0.0000  0.0000  0.0000  0.0000  0.0000  0.0000  0.0000
  o =  0.2496  v =  0.0013  0.0004  0.0061 -0.0003 -1.0000  0.0000  0.0000  0.0000  0.0000  0.0000      0.0000  0.0000  0.0000  0.0000  0.0000  0.0000  0.0000  0.0000  0.0000  0.0000
atom =   4  type =  1  l = 2
 
 onsite density matrix
 
spin component  1
 
  0.1065  0.0000 -0.0000  0.0000  0.0000
  0.0000  0.0995  0.0000 -0.0000  0.0000
 -0.0000  0.0000  0.2424 -0.0000 -0.0003
  0.0000 -0.0000 -0.0000  0.1002 -0.0000
  0.0000  0.0000 -0.0003 -0.0000  0.2517
 
spin component  2
 
  0.1065  0.0000  0.0000  0.0000  0.0000
  0.0000  0.0995  0.0000  0.0000  0.0000
  0.0000  0.0000  0.2424 -0.0000 -0.0003
  0.0000  0.0000 -0.0000  0.1002 -0.0000
  0.0000  0.0000 -0.0003 -0.0000  0.2517
 
 occupancies and eigenvectors
 
  o =  0.0995  v =  0.0000  0.0000  0.0000  0.0000  0.0000 -0.0000  1.0000 -0.0000 -0.0000 -0.0000      0.0000  0.0000  0.0000  0.0000  0.0000  0.0000  0.0000  0.0000  0.0000  0.0000
  o =  0.0995  v =  0.0000 -1.0000  0.0000 -0.0000  0.0000  0.0000  0.0000  0.0000  0.0000  0.0000      0.0000  0.0000  0.0000  0.0000  0.0000  0.0000  0.0000  0.0000  0.0000  0.0000
  o =  0.1002  v =  0.0000  0.0000  0.0000  0.0000  0.0000  0.0003 -0.0000 -0.0000 -1.0000 -0.0000      0.0000  0.0000  0.0000  0.0000  0.0000  0.0000  0.0000  0.0000  0.0000  0.0000
  o =  0.1002  v =  0.0003  0.0000 -0.0000 -1.0000 -0.0000  0.0000  0.0000  0.0000  0.0000  0.0000      0.0000  0.0000  0.0000  0.0000  0.0000  0.0000  0.0000  0.0000  0.0000  0.0000
  o =  0.1065  v =  0.0000  0.0000  0.0000  0.0000  0.0000  1.0000  0.0000 -0.0000  0.0003 -0.0000      0.0000  0.0000  0.0000  0.0000  0.0000  0.0000  0.0000  0.0000  0.0000  0.0000
  o =  0.1065  v = -1.0000 -0.0000 -0.0000 -0.0003  0.0000  0.0000  0.0000  0.0000  0.0000  0.0000      0.0000  0.0000  0.0000  0.0000  0.0000  0.0000  0.0000  0.0000  0.0000  0.0000
  o =  0.2424  v =  0.0000  0.0000  0.0000  0.0000  0.0000  0.0000  0.0000  0.9994 -0.0000  0.0342      0.0000  0.0000  0.0000  0.0000  0.0000  0.0000  0.0000  0.0000  0.0000  0.0000
  o =  0.2424  v =  0.0000 -0.0000 -0.9994  0.0000 -0.0343  0.0000  0.0000  0.0000  0.0000  0.0000      0.0000  0.0000  0.0000  0.0000  0.0000  0.0000  0.0000  0.0000  0.0000  0.0000
  o =  0.2517  v =  0.0000  0.0000  0.0000  0.0000  0.0000 -0.0000 -0.0000  0.0342  0.0000 -0.9994      0.0000  0.0000  0.0000  0.0000  0.0000  0.0000  0.0000  0.0000  0.0000  0.0000
  o =  0.2517  v = -0.0000 -0.0000  0.0343  0.0000 -0.9994  0.0000  0.0000  0.0000  0.0000  0.0000      0.0000  0.0000  0.0000  0.0000  0.0000  0.0000  0.0000  0.0000  0.0000  0.0000
atom =   5  type =  1  l = 2
 
 onsite density matrix
 
spin component  1
 
  0.1061 -0.0005  0.0000  0.0000  0.0000
 -0.0005  0.1008  0.0000 -0.0000  0.0000
  0.0000  0.0000  0.2432 -0.0000  0.0011
  0.0000 -0.0000 -0.0000  0.0989  0.0004
  0.0000  0.0000  0.0011  0.0004  0.2507
 
spin component  2
 
  0.1061 -0.0005  0.0000  0.0000  0.0000
 -0.0005  0.1008  0.0000 -0.0000  0.0000
  0.0000  0.0000  0.2432 -0.0000  0.0011
  0.0000 -0.0000 -0.0000  0.0989  0.0004
  0.0000  0.0000  0.0011  0.0004  0.2507
 
 occupancies and eigenvectors
 
  o =  0.0989  v =  0.0000  0.0000  0.0000  0.0000  0.0000  0.0002 -0.0001 -0.0002 -1.0000  0.0026      0.0000  0.0000  0.0000  0.0000  0.0000  0.0000  0.0000  0.0000  0.0000  0.0000
  o =  0.0989  v =  0.0002 -0.0001 -0.0002 -1.0000  0.0026  0.0000  0.0000  0.0000  0.0000  0.0000      0.0000  0.0000  0.0000  0.0000  0.0000  0.0000  0.0000  0.0000  0.0000  0.0000
  o =  0.1007  v =  0.0000  0.0000  0.0000  0.0000  0.0000 -0.0888 -0.9960  0.0000  0.0000  0.0000      0.0000  0.0000  0.0000  0.0000  0.0000  0.0000  0.0000  0.0000  0.0000  0.0000
  o =  0.1007  v = -0.0878 -0.9961  0.0000  0.0000  0.0000  0.0000  0.0000  0.0000  0.0000  0.0000      0.0000  0.0000  0.0000  0.0000  0.0000  0.0000  0.0000  0.0000  0.0000  0.0000
  o =  0.1061  v =  0.0000  0.0000  0.0000  0.0000  0.0000  0.9960 -0.0888 -0.0000  0.0002 -0.0000      0.0000  0.0000  0.0000  0.0000  0.0000  0.0000  0.0000  0.0000  0.0000  0.0000
  o =  0.1061  v =  0.9961 -0.0878 -0.0000  0.0002 -0.0000  0.0000  0.0000  0.0000  0.0000  0.0000      0.0000  0.0000  0.0000  0.0000  0.0000  0.0000  0.0000  0.0000  0.0000  0.0000
  o =  0.2431  v =  0.0000  0.0000  0.0000  0.0000  0.0000 -0.0000 -0.0000 -0.9906  0.0006  0.1368      0.0000  0.0000  0.0000  0.0000  0.0000  0.0000  0.0000  0.0000  0.0000  0.0000
  o =  0.2431  v = -0.0000 -0.0000 -0.9906  0.0006  0.1368  0.0000  0.0000  0.0000  0.0000  0.0000      0.0000  0.0000  0.0000  0.0000  0.0000  0.0000  0.0000  0.0000  0.0000  0.0000
  o =  0.2508  v =  0.0000  0.0000  0.1368  0.0025  0.9906  0.0000  0.0000  0.0000  0.0000  0.0000      0.0000  0.0000  0.0000  0.0000  0.0000  0.0000  0.0000  0.0000  0.0000  0.0000
  o =  0.2508  v =  0.0000  0.0000  0.0000  0.0000  0.0000  0.0000  0.0000  0.1368  0.0025  0.9906      0.0000  0.0000  0.0000  0.0000  0.0000  0.0000  0.0000  0.0000  0.0000  0.0000
atom =   6  type =  1  l = 2
 
 onsite density matrix
 
spin component  1
 
  0.1061  0.0005 -0.0000  0.0000 -0.0000
  0.0005  0.1008  0.0000  0.0000  0.0000
 -0.0000  0.0000  0.2432  0.0000  0.0011
  0.0000  0.0000  0.0000  0.0989 -0.0004
 -0.0000  0.0000  0.0011 -0.0004  0.2507
 
spin component  2
 
  0.1061  0.0005 -0.0000  0.0000 -0.0000
  0.0005  0.1008  0.0000  0.0000  0.0000
 -0.0000  0.0000  0.2432  0.0000  0.0011
  0.0000  0.0000  0.0000  0.0989 -0.0004
 -0.0000  0.0000  0.0011 -0.0004  0.2507
 
 occupancies and eigenvectors
 
  o =  0.0989  v =  0.0000  0.0000  0.0000  0.0000  0.0000  0.0002  0.0001  0.0002 -1.0000 -0.0026      0.0000  0.0000  0.0000  0.0000  0.0000  0.0000  0.0000  0.0000  0.0000  0.0000
  o =  0.0989  v =  0.0002  0.0001  0.0002 -1.0000 -0.0026  0.0000  0.0000  0.0000  0.0000  0.0000      0.0000  0.0000  0.0000  0.0000  0.0000  0.0000  0.0000  0.0000  0.0000  0.0000
  o =  0.1007  v =  0.0000  0.0000  0.0000  0.0000  0.0000  0.0888 -0.9960  0.0000 -0.0000  0.0000      0.0000  0.0000  0.0000  0.0000  0.0000  0.0000  0.0000  0.0000  0.0000  0.0000
  o =  0.1007  v =  0.0878 -0.9961  0.0000 -0.0000  0.0000  0.0000  0.0000  0.0000  0.0000  0.0000      0.0000  0.0000  0.0000  0.0000  0.0000  0.0000  0.0000  0.0000  0.0000  0.0000
  o =  0.1061  v =  0.0000  0.0000  0.0000  0.0000  0.0000  0.9960  0.0888  0.0000  0.0002  0.0000      0.0000  0.0000  0.0000  0.0000  0.0000  0.0000  0.0000  0.0000  0.0000  0.0000
  o =  0.1061  v =  0.9961  0.0878  0.0000  0.0002  0.0000  0.0000  0.0000  0.0000  0.0000  0.0000      0.0000  0.0000  0.0000  0.0000  0.0000  0.0000  0.0000  0.0000  0.0000  0.0000
  o =  0.2431  v =  0.0000  0.0000  0.0000  0.0000  0.0000  0.0000 -0.0000 -0.9906 -0.0006  0.1368      0.0000  0.0000  0.0000  0.0000  0.0000  0.0000  0.0000  0.0000  0.0000  0.0000
  o =  0.2431  v =  0.0000 -0.0000 -0.9906 -0.0006  0.1368  0.0000  0.0000  0.0000  0.0000  0.0000      0.0000  0.0000  0.0000  0.0000  0.0000  0.0000  0.0000  0.0000  0.0000  0.0000
  o =  0.2508  v = -0.0000  0.0000  0.1368 -0.0025  0.9906  0.0000  0.0000  0.0000  0.0000  0.0000      0.0000  0.0000  0.0000  0.0000  0.0000  0.0000  0.0000  0.0000  0.0000  0.0000
  o =  0.2508  v =  0.0000  0.0000  0.0000  0.0000  0.0000 -0.0000  0.0000  0.1368 -0.0025  0.9906      0.0000  0.0000  0.0000  0.0000  0.0000  0.0000  0.0000  0.0000  0.0000  0.0000
atom =   7  type =  1  l = 2
 
 onsite density matrix
 
spin component  1
 
  0.1062 -0.0000 -0.0000  0.0004  0.0000
 -0.0000  0.0990 -0.0003  0.0000  0.0000
 -0.0000 -0.0003  0.2422 -0.0000 -0.0012
  0.0004  0.0000 -0.0000  0.1007  0.0000
  0.0000  0.0000 -0.0012  0.0000  0.2509
 
spin component  2
 
  0.1062 -0.0000 -0.0000  0.0004  0.0000
 -0.0000  0.0990 -0.0003 -0.0000  0.0000
 -0.0000 -0.0003  0.2422 -0.0000 -0.0012
  0.0004 -0.0000 -0.0000  0.1007  0.0000
  0.0000  0.0000 -0.0012  0.0000  0.2509
 
 occupancies and eigenvectors
 
  o =  0.0990  v =  0.0000  0.0000  0.0000  0.0000  0.0000 -0.0000 -1.0000 -0.0020 -0.0000  0.0003      0.0000  0.0000  0.0000  0.0000  0.0000  0.0000  0.0000  0.0000  0.0000  0.0000
  o =  0.0990  v =  0.0000  1.0000  0.0020 -0.0000 -0.0003  0.0000  0.0000  0.0000  0.0000  0.0000      0.0000  0.0000  0.0000  0.0000  0.0000  0.0000  0.0000  0.0000  0.0000  0.0000
  o =  0.1007  v =  0.0000  0.0000  0.0000  0.0000  0.0000 -0.0757 -0.0000  0.0000  0.9971 -0.0000      0.0000  0.0000  0.0000  0.0000  0.0000  0.0000  0.0000  0.0000  0.0000  0.0000
  o =  0.1007  v = -0.0756  0.0000  0.0000  0.9971 -0.0000  0.0000  0.0000  0.0000  0.0000  0.0000      0.0000  0.0000  0.0000  0.0000  0.0000  0.0000  0.0000  0.0000  0.0000  0.0000
  o =  0.1062  v =  0.0000  0.0000  0.0000  0.0000  0.0000  0.9971 -0.0000  0.0000  0.0757 -0.0000      0.0000  0.0000  0.0000  0.0000  0.0000  0.0000  0.0000  0.0000  0.0000  0.0000
  o =  0.1062  v =  0.9971 -0.0000  0.0000  0.0756 -0.0000  0.0000  0.0000  0.0000  0.0000  0.0000      0.0000  0.0000  0.0000  0.0000  0.0000  0.0000  0.0000  0.0000  0.0000  0.0000
  o =  0.2421  v =  0.0000  0.0000  0.0000  0.0000  0.0000 -0.0000  0.0020 -0.9914  0.0000 -0.1311      0.0000  0.0000  0.0000  0.0000  0.0000  0.0000  0.0000  0.0000  0.0000  0.0000
  o =  0.2421  v =  0.0000  0.0020 -0.9913  0.0000 -0.1313  0.0000  0.0000  0.0000  0.0000  0.0000      0.0000  0.0000  0.0000  0.0000  0.0000  0.0000  0.0000  0.0000  0.0000  0.0000
  o =  0.2510  v = -0.0000 -0.0006  0.1313 -0.0000 -0.9913  0.0000  0.0000  0.0000  0.0000  0.0000      0.0000  0.0000  0.0000  0.0000  0.0000  0.0000  0.0000  0.0000  0.0000  0.0000
  o =  0.2510  v =  0.0000  0.0000  0.0000  0.0000  0.0000  0.0000  0.0006 -0.1311  0.0000  0.9914      0.0000  0.0000  0.0000  0.0000  0.0000  0.0000  0.0000  0.0000  0.0000  0.0000
atom =   8  type =  1  l = 2
 
 onsite density matrix
 
spin component  1
 
  0.1059 -0.0009  0.0003  0.0007 -0.0002
 -0.0009  0.0995  0.0002 -0.0000  0.0001
  0.0003  0.0002  0.2433 -0.0003 -0.0000
  0.0007 -0.0000 -0.0003  0.0998 -0.0000
 -0.0002  0.0001 -0.0000 -0.0000  0.2496
 
spin component  2
 
  0.1059 -0.0009  0.0003  0.0007 -0.0002
 -0.0009  0.0995  0.0002 -0.0000  0.0001
  0.0003  0.0002  0.2432 -0.0003 -0.0000
  0.0007 -0.0000 -0.0003  0.0996 -0.0001
 -0.0002  0.0001 -0.0000 -0.0001  0.2496
 
 occupancies and eigenvectors
 
  o =  0.0994  v =  0.0000  0.0000  0.0000  0.0000  0.0000  0.1626  0.9245 -0.0022 -0.3446 -0.0003      0.0000  0.0000  0.0000  0.0000  0.0000  0.0000  0.0000  0.0000  0.0000  0.0000
  o =  0.0994  v =  0.1515  0.9684 -0.0020 -0.1980 -0.0002  0.0000  0.0000  0.0000  0.0000  0.0000      0.0000  0.0000  0.0000  0.0000  0.0000  0.0000  0.0000  0.0000  0.0000  0.0000
  o =  0.0996  v =  0.0000  0.0000  0.0000  0.0000  0.0000  0.0578 -0.3576 -0.0013 -0.9321 -0.0002      0.0000  0.0000  0.0000  0.0000  0.0000  0.0000  0.0000  0.0000  0.0000  0.0000
  o =  0.0997  v =  0.0829 -0.2121 -0.0019 -0.9737 -0.0001  0.0000  0.0000  0.0000  0.0000  0.0000      0.0000  0.0000  0.0000  0.0000  0.0000  0.0000  0.0000  0.0000  0.0000  0.0000
  o =  0.1061  v =  0.9850 -0.1311 -0.0020  0.1124  0.0014  0.0000  0.0000  0.0000  0.0000  0.0000      0.0000  0.0000  0.0000  0.0000  0.0000  0.0000  0.0000  0.0000  0.0000  0.0000
  o =  0.1061  v =  0.0000  0.0000  0.0000  0.0000  0.0000  0.9850 -0.1316 -0.0020  0.1116  0.0014      0.0000  0.0000  0.0000  0.0000  0.0000  0.0000  0.0000  0.0000  0.0000  0.0000
  o =  0.2432  v =  0.0000  0.0000  0.0000  0.0000  0.0000 -0.0024 -0.0013 -1.0000  0.0018 -0.0029      0.0000  0.0000  0.0000  0.0000  0.0000  0.0000  0.0000  0.0000  0.0000  0.0000
  o =  0.2433  v = -0.0024 -0.0012 -1.0000  0.0021 -0.0055  0.0000  0.0000  0.0000  0.0000  0.0000      0.0000  0.0000  0.0000  0.0000  0.0000  0.0000  0.0000  0.0000  0.0000  0.0000
  o =  0.2496  v =  0.0000  0.0000  0.0000  0.0000  0.0000  0.0013 -0.0003  0.0029  0.0005 -1.0000      0.0000  0.0000  0.0000  0.0000  0.0000  0.0000  0.0000  0.0000  0.0000  0.0000
  o =  0.2496  v =  0.0013 -0.0004  0.0055  0.0003 -1.0000  0.0000  0.0000  0.0000  0.0000  0.0000      0.0000  0.0000  0.0000  0.0000  0.0000  0.0000  0.0000  0.0000  0.0000  0.0000
atom =   9  type =  1  l = 2
 
 onsite density matrix
 
spin component  1
 
  0.1059  0.0009 -0.0003  0.0007  0.0002
  0.0009  0.0995  0.0002  0.0000  0.0001
 -0.0003  0.0002  0.2433  0.0003 -0.0000
  0.0007  0.0000  0.0003  0.0998  0.0000
  0.0002  0.0001 -0.0000  0.0000  0.2496
 
spin component  2
 
  0.1059  0.0009 -0.0003  0.0007  0.0002
  0.0009  0.0995  0.0002  0.0000  0.0001
 -0.0003  0.0002  0.2432  0.0003 -0.0000
  0.0007  0.0000  0.0003  0.0996  0.0001
  0.0002  0.0001 -0.0000  0.0001  0.2496
 
 occupancies and eigenvectors
 
  o =  0.0994  v =  0.0000  0.0000  0.0000  0.0000  0.0000  0.1626 -0.9246  0.0022 -0.3446  0.0003      0.0000  0.0000  0.0000  0.0000  0.0000  0.0000  0.0000  0.0000  0.0000  0.0000
  o =  0.0994  v =  0.1515 -0.9684  0.0020 -0.1980  0.0002  0.0000  0.0000  0.0000  0.0000  0.0000      0.0000  0.0000  0.0000  0.0000  0.0000  0.0000  0.0000  0.0000  0.0000  0.0000
  o =  0.0996  v =  0.0000  0.0000  0.0000  0.0000  0.0000 -0.0578 -0.3576 -0.0013  0.9321 -0.0002      0.0000  0.0000  0.0000  0.0000  0.0000  0.0000  0.0000  0.0000  0.0000  0.0000
  o =  0.0997  v = -0.0829 -0.2121 -0.0019  0.9737 -0.0001  0.0000  0.0000  0.0000  0.0000  0.0000      0.0000  0.0000  0.0000  0.0000  0.0000  0.0000  0.0000  0.0000  0.0000  0.0000
  o =  0.1061  v =  0.9850  0.1311  0.0020  0.1124 -0.0014  0.0000  0.0000  0.0000  0.0000  0.0000      0.0000  0.0000  0.0000  0.0000  0.0000  0.0000  0.0000  0.0000  0.0000  0.0000
  o =  0.1061  v =  0.0000  0.0000  0.0000  0.0000  0.0000  0.9850  0.1316  0.0020  0.1116 -0.0014      0.0000  0.0000  0.0000  0.0000  0.0000  0.0000  0.0000  0.0000  0.0000  0.0000
  o =  0.2432  v =  0.0000  0.0000  0.0000  0.0000  0.0000 -0.0024  0.0013  1.0000  0.0018  0.0029      0.0000  0.0000  0.0000  0.0000  0.0000  0.0000  0.0000  0.0000  0.0000  0.0000
  o =  0.2433  v = -0.0024  0.0012  1.0000  0.0021  0.0055  0.0000  0.0000  0.0000  0.0000  0.0000      0.0000  0.0000  0.0000  0.0000  0.0000  0.0000  0.0000  0.0000  0.0000  0.0000
  o =  0.2496  v =  0.0000  0.0000  0.0000  0.0000  0.0000  0.0013  0.0003 -0.0029  0.0005  1.0000      0.0000  0.0000  0.0000  0.0000  0.0000  0.0000  0.0000  0.0000  0.0000  0.0000
  o =  0.2496  v =  0.0013  0.0004 -0.0055  0.0003  1.0000  0.0000  0.0000  0.0000  0.0000  0.0000      0.0000  0.0000  0.0000  0.0000  0.0000  0.0000  0.0000  0.0000  0.0000  0.0000
atom =  10  type =  1  l = 2
 
 onsite density matrix
 
spin component  1
 
  0.1065 -0.0006 -0.0002 -0.0005  0.0006
 -0.0006  0.0998  0.0001  0.0000  0.0000
 -0.0002  0.0001  0.2422  0.0005 -0.0003
 -0.0005  0.0000  0.0005  0.1001 -0.0006
  0.0006  0.0000 -0.0003 -0.0006  0.2509
 
spin component  2
 
  0.1064 -0.0006 -0.0002 -0.0006  0.0006
 -0.0006  0.0997  0.0001  0.0001  0.0000
 -0.0002  0.0001  0.2422  0.0005 -0.0003
 -0.0006  0.0001  0.0005  0.1001 -0.0006
  0.0006  0.0000 -0.0003 -0.0006  0.2509
 
 occupancies and eigenvectors
 
  o =  0.0997  v =  0.0000  0.0000  0.0000  0.0000  0.0000 -0.0812 -0.9943  0.0004  0.0687  0.0008      0.0000  0.0000  0.0000  0.0000  0.0000  0.0000  0.0000  0.0000  0.0000  0.0000
  o =  0.0997  v =  0.0957  0.9953 -0.0005  0.0145 -0.0006  0.0000  0.0000  0.0000  0.0000  0.0000      0.0000  0.0000  0.0000  0.0000  0.0000  0.0000  0.0000  0.0000  0.0000  0.0000
  o =  0.1000  v =  0.0000  0.0000  0.0000  0.0000  0.0000 -0.0983 -0.0606  0.0032 -0.9933 -0.0034      0.0000  0.0000  0.0000  0.0000  0.0000  0.0000  0.0000  0.0000  0.0000  0.0000
  o =  0.1000  v = -0.0801  0.0222  0.0032 -0.9965 -0.0035  0.0000  0.0000  0.0000  0.0000  0.0000      0.0000  0.0000  0.0000  0.0000  0.0000  0.0000  0.0000  0.0000  0.0000  0.0000
  o =  0.1065  v =  0.0000  0.0000  0.0000  0.0000  0.0000  0.9918 -0.0874  0.0019 -0.0928 -0.0045      0.0000  0.0000  0.0000  0.0000  0.0000  0.0000  0.0000  0.0000  0.0000  0.0000
  o =  0.1066  v =  0.9922 -0.0942  0.0014 -0.0818 -0.0043  0.0000  0.0000  0.0000  0.0000  0.0000      0.0000  0.0000  0.0000  0.0000  0.0000  0.0000  0.0000  0.0000  0.0000  0.0000
  o =  0.2422  v =  0.0000  0.0000  0.0000  0.0000  0.0000  0.0014 -0.0008 -0.9996 -0.0032 -0.0292      0.0000  0.0000  0.0000  0.0000  0.0000  0.0000  0.0000  0.0000  0.0000  0.0000
  o =  0.2422  v =  0.0010 -0.0006 -0.9996 -0.0032 -0.0295  0.0000  0.0000  0.0000  0.0000  0.0000      0.0000  0.0000  0.0000  0.0000  0.0000  0.0000  0.0000  0.0000  0.0000  0.0000
  o =  0.2509  v = -0.0040 -0.0003  0.0295  0.0039 -0.9996  0.0000  0.0000  0.0000  0.0000  0.0000      0.0000  0.0000  0.0000  0.0000  0.0000  0.0000  0.0000  0.0000  0.0000  0.0000
  o =  0.2509  v =  0.0000  0.0000  0.0000  0.0000  0.0000 -0.0043 -0.0002  0.0292  0.0040 -0.9996      0.0000  0.0000  0.0000  0.0000  0.0000  0.0000  0.0000  0.0000  0.0000  0.0000
atom =  11  type =  1  l = 2
 
 onsite density matrix
 
spin component  1
 
  0.1068  0.0000  0.0000 -0.0021  0.0000
  0.0000  0.1106  0.0086 -0.0000  0.0118
  0.0000  0.0086  0.2381 -0.0000  0.0149
 -0.0021 -0.0000 -0.0000  0.0955 -0.0000
  0.0000  0.0118  0.0149 -0.0000  0.2643
 
spin component  2
 
  0.1065  0.0000  0.0000 -0.0021  0.0000
  0.0000  0.1090  0.0069  0.0000  0.0089
  0.0000  0.0069  0.2344 -0.0000  0.0096
 -0.0021  0.0000 -0.0000  0.0952 -0.0000
  0.0000  0.0089  0.0096 -0.0000  0.2549
 
 occupancies and eigenvectors
 
  o =  0.0948  v =  0.0000  0.0000  0.0000  0.0000  0.0000  0.1795 -0.0000  0.0000  0.9838  0.0000      0.0000  0.0000  0.0000  0.0000  0.0000  0.0000  0.0000  0.0000  0.0000  0.0000
  o =  0.0951  v =  0.1775 -0.0000 -0.0000  0.9841  0.0000  0.0000  0.0000  0.0000  0.0000  0.0000      0.0000  0.0000  0.0000  0.0000  0.0000  0.0000  0.0000  0.0000  0.0000  0.0000
  o =  0.1069  v =  0.0000  0.0000  0.0000  0.0000  0.0000  0.9838 -0.0000  0.0000 -0.1795  0.0000      0.0000  0.0000  0.0000  0.0000  0.0000  0.0000  0.0000  0.0000  0.0000  0.0000
  o =  0.1072  v =  0.9841 -0.0000  0.0000 -0.1775  0.0000  0.0000  0.0000  0.0000  0.0000  0.0000      0.0000  0.0000  0.0000  0.0000  0.0000  0.0000  0.0000  0.0000  0.0000  0.0000
  o =  0.1081  v =  0.0000  0.0000  0.0000  0.0000  0.0000 -0.0000 -0.9971  0.0501  0.0000  0.0568      0.0000  0.0000  0.0000  0.0000  0.0000  0.0000  0.0000  0.0000  0.0000  0.0000
  o =  0.1092  v = -0.0000 -0.9958  0.0580  0.0000  0.0702  0.0000  0.0000  0.0000  0.0000  0.0000      0.0000  0.0000  0.0000  0.0000  0.0000  0.0000  0.0000  0.0000  0.0000  0.0000
  o =  0.2307  v =  0.0000  0.0000  0.0000  0.0000  0.0000  0.0000  0.0251  0.9264  0.0000 -0.3757      0.0000  0.0000  0.0000  0.0000  0.0000  0.0000  0.0000  0.0000  0.0000  0.0000
  o =  0.2314  v =  0.0000  0.0233  0.9075  0.0000 -0.4195  0.0000  0.0000  0.0000  0.0000  0.0000      0.0000  0.0000  0.0000  0.0000  0.0000  0.0000  0.0000  0.0000  0.0000  0.0000
  o =  0.2595  v =  0.0000  0.0000  0.0000  0.0000  0.0000 -0.0000 -0.0715 -0.3732  0.0000 -0.9250      0.0000  0.0000  0.0000  0.0000  0.0000  0.0000  0.0000  0.0000  0.0000  0.0000
  o =  0.2723  v = -0.0000 -0.0880 -0.4161  0.0000 -0.9050  0.0000  0.0000  0.0000  0.0000  0.0000      0.0000  0.0000  0.0000  0.0000  0.0000  0.0000  0.0000  0.0000  0.0000  0.0000
atom =  12  type =  1  l = 2
 
 onsite density matrix
 
spin component  1
 
  0.1065  0.0006  0.0002 -0.0005 -0.0006
  0.0006  0.0998  0.0001 -0.0000  0.0000
  0.0002  0.0001  0.2422 -0.0005 -0.0003
 -0.0005 -0.0000 -0.0005  0.1001  0.0006
 -0.0006  0.0000 -0.0003  0.0006  0.2509
 
spin component  2
 
  0.1064  0.0006  0.0002 -0.0006 -0.0006
  0.0006  0.0997  0.0001 -0.0001  0.0000
  0.0002  0.0001  0.2422 -0.0005 -0.0003
 -0.0006 -0.0001 -0.0005  0.1001  0.0006
 -0.0006  0.0000 -0.0003  0.0006  0.2509
 
 occupancies and eigenvectors
 
  o =  0.0997  v =  0.0000  0.0000  0.0000  0.0000  0.0000  0.0812 -0.9943  0.0004 -0.0687  0.0008      0.0000  0.0000  0.0000  0.0000  0.0000  0.0000  0.0000  0.0000  0.0000  0.0000
  o =  0.0997  v =  0.0957 -0.9953  0.0005  0.0145  0.0006  0.0000  0.0000  0.0000  0.0000  0.0000      0.0000  0.0000  0.0000  0.0000  0.0000  0.0000  0.0000  0.0000  0.0000  0.0000
  o =  0.1000  v =  0.0000  0.0000  0.0000  0.0000  0.0000 -0.0983  0.0606 -0.0032 -0.9933  0.0034      0.0000  0.0000  0.0000  0.0000  0.0000  0.0000  0.0000  0.0000  0.0000  0.0000
  o =  0.1000  v =  0.0801  0.0222  0.0032  0.9965 -0.0035  0.0000  0.0000  0.0000  0.0000  0.0000      0.0000  0.0000  0.0000  0.0000  0.0000  0.0000  0.0000  0.0000  0.0000  0.0000
  o =  0.1065  v =  0.0000  0.0000  0.0000  0.0000  0.0000  0.9918  0.0874 -0.0019 -0.0928  0.0045      0.0000  0.0000  0.0000  0.0000  0.0000  0.0000  0.0000  0.0000  0.0000  0.0000
  o =  0.1066  v =  0.9922  0.0942 -0.0014 -0.0818  0.0043  0.0000  0.0000  0.0000  0.0000  0.0000      0.0000  0.0000  0.0000  0.0000  0.0000  0.0000  0.0000  0.0000  0.0000  0.0000
  o =  0.2422  v =  0.0000  0.0000  0.0000  0.0000  0.0000  0.0014  0.0008  0.9996 -0.0032  0.0292      0.0000  0.0000  0.0000  0.0000  0.0000  0.0000  0.0000  0.0000  0.0000  0.0000
  o =  0.2422  v =  0.0010  0.0006  0.9996 -0.0032  0.0295  0.0000  0.0000  0.0000  0.0000  0.0000      0.0000  0.0000  0.0000  0.0000  0.0000  0.0000  0.0000  0.0000  0.0000  0.0000
  o =  0.2509  v = -0.0040  0.0003 -0.0295  0.0039  0.9996  0.0000  0.0000  0.0000  0.0000  0.0000      0.0000  0.0000  0.0000  0.0000  0.0000  0.0000  0.0000  0.0000  0.0000  0.0000
  o =  0.2509  v =  0.0000  0.0000  0.0000  0.0000  0.0000 -0.0043  0.0002 -0.0292  0.0040  0.9996      0.0000  0.0000  0.0000  0.0000  0.0000  0.0000  0.0000  0.0000  0.0000  0.0000
atom =  13  type =  1  l = 2
 
 onsite density matrix
 
spin component  1
 
  0.1065 -0.0006  0.0002  0.0005 -0.0006
 -0.0006  0.0998 -0.0001 -0.0000 -0.0001
  0.0002 -0.0001  0.2422  0.0005 -0.0003
  0.0005 -0.0000  0.0005  0.1001 -0.0006
 -0.0006 -0.0001 -0.0003 -0.0006  0.2509
 
spin component  2
 
  0.1064 -0.0006  0.0002  0.0006 -0.0006
 -0.0006  0.0997 -0.0001 -0.0001 -0.0000
  0.0002 -0.0001  0.2422  0.0005 -0.0003
  0.0006 -0.0001  0.0005  0.1001 -0.0006
 -0.0006 -0.0000 -0.0003 -0.0006  0.2509
 
 occupancies and eigenvectors
 
  o =  0.0997  v =  0.0000  0.0000  0.0000  0.0000  0.0000  0.0809  0.9942  0.0005  0.0711  0.0009      0.0000  0.0000  0.0000  0.0000  0.0000  0.0000  0.0000  0.0000  0.0000  0.0000
  o =  0.0997  v =  0.0955  0.9953  0.0006 -0.0139  0.0006  0.0000  0.0000  0.0000  0.0000  0.0000      0.0000  0.0000  0.0000  0.0000  0.0000  0.0000  0.0000  0.0000  0.0000  0.0000
  o =  0.1000  v =  0.0000  0.0000  0.0000  0.0000  0.0000 -0.0980 -0.0630 -0.0032  0.9932  0.0034      0.0000  0.0000  0.0000  0.0000  0.0000  0.0000  0.0000  0.0000  0.0000  0.0000
  o =  0.1000  v =  0.0797 -0.0215  0.0032 -0.9966 -0.0035  0.0000  0.0000  0.0000  0.0000  0.0000      0.0000  0.0000  0.0000  0.0000  0.0000  0.0000  0.0000  0.0000  0.0000  0.0000
  o =  0.1065  v =  0.0000  0.0000  0.0000  0.0000  0.0000  0.9919 -0.0873 -0.0018  0.0923  0.0045      0.0000  0.0000  0.0000  0.0000  0.0000  0.0000  0.0000  0.0000  0.0000  0.0000
  o =  0.1066  v =  0.9922 -0.0941 -0.0014  0.0813  0.0042  0.0000  0.0000  0.0000  0.0000  0.0000      0.0000  0.0000  0.0000  0.0000  0.0000  0.0000  0.0000  0.0000  0.0000  0.0000
  o =  0.2422  v =  0.0000  0.0000  0.0000  0.0000  0.0000  0.0014 -0.0008  0.9996  0.0032  0.0291      0.0000  0.0000  0.0000  0.0000  0.0000  0.0000  0.0000  0.0000  0.0000  0.0000
  o =  0.2422  v =  0.0010 -0.0006  0.9996  0.0032  0.0294  0.0000  0.0000  0.0000  0.0000  0.0000      0.0000  0.0000  0.0000  0.0000  0.0000  0.0000  0.0000  0.0000  0.0000  0.0000
  o =  0.2509  v = -0.0040 -0.0003 -0.0294 -0.0039  0.9996  0.0000  0.0000  0.0000  0.0000  0.0000      0.0000  0.0000  0.0000  0.0000  0.0000  0.0000  0.0000  0.0000  0.0000  0.0000
  o =  0.2509  v =  0.0000  0.0000  0.0000  0.0000  0.0000 -0.0043 -0.0002 -0.0291 -0.0039  0.9996      0.0000  0.0000  0.0000  0.0000  0.0000  0.0000  0.0000  0.0000  0.0000  0.0000
atom =  14  type =  1  l = 2
 
 onsite density matrix
 
spin component  1
 
  0.1068  0.0000  0.0000  0.0021  0.0000
  0.0000  0.1106 -0.0086  0.0000 -0.0118
  0.0000 -0.0086  0.2381 -0.0000  0.0149
  0.0021  0.0000 -0.0000  0.0955  0.0000
  0.0000 -0.0118  0.0149  0.0000  0.2643
 
spin component  2
 
  0.1065  0.0000  0.0000  0.0021  0.0000
  0.0000  0.1090 -0.0069 -0.0000 -0.0089
  0.0000 -0.0069  0.2344 -0.0000  0.0096
  0.0021 -0.0000 -0.0000  0.0952  0.0000
  0.0000 -0.0089  0.0096  0.0000  0.2549
 
 occupancies and eigenvectors
 
  o =  0.0948  v =  0.0000  0.0000  0.0000  0.0000  0.0000  0.1791 -0.0000 -0.0000 -0.9838  0.0000      0.0000  0.0000  0.0000  0.0000  0.0000  0.0000  0.0000  0.0000  0.0000  0.0000
  o =  0.0951  v =  0.1771 -0.0000 -0.0000 -0.9842  0.0000  0.0000  0.0000  0.0000  0.0000  0.0000      0.0000  0.0000  0.0000  0.0000  0.0000  0.0000  0.0000  0.0000  0.0000  0.0000
  o =  0.1069  v =  0.0000  0.0000  0.0000  0.0000  0.0000  0.9838 -0.0000 -0.0000  0.1791 -0.0000      0.0000  0.0000  0.0000  0.0000  0.0000  0.0000  0.0000  0.0000  0.0000  0.0000
  o =  0.1072  v =  0.9842 -0.0000 -0.0000  0.1771 -0.0000  0.0000  0.0000  0.0000  0.0000  0.0000      0.0000  0.0000  0.0000  0.0000  0.0000  0.0000  0.0000  0.0000  0.0000  0.0000
  o =  0.1081  v =  0.0000  0.0000  0.0000  0.0000  0.0000 -0.0000 -0.9971 -0.0501 -0.0000 -0.0569      0.0000  0.0000  0.0000  0.0000  0.0000  0.0000  0.0000  0.0000  0.0000  0.0000
  o =  0.1092  v = -0.0000 -0.9958 -0.0580 -0.0000 -0.0702  0.0000  0.0000  0.0000  0.0000  0.0000      0.0000  0.0000  0.0000  0.0000  0.0000  0.0000  0.0000  0.0000  0.0000  0.0000
  o =  0.2307  v =  0.0000  0.0000  0.0000  0.0000  0.0000 -0.0000 -0.0251  0.9264 -0.0000 -0.3757      0.0000  0.0000  0.0000  0.0000  0.0000  0.0000  0.0000  0.0000  0.0000  0.0000
  o =  0.2314  v = -0.0000 -0.0233  0.9075 -0.0000 -0.4195  0.0000  0.0000  0.0000  0.0000  0.0000      0.0000  0.0000  0.0000  0.0000  0.0000  0.0000  0.0000  0.0000  0.0000  0.0000
  o =  0.2595  v =  0.0000  0.0000  0.0000  0.0000  0.0000  0.0000 -0.0715  0.3732  0.0000  0.9250      0.0000  0.0000  0.0000  0.0000  0.0000  0.0000  0.0000  0.0000  0.0000  0.0000
  o =  0.2723  v =  0.0000 -0.0881  0.4161  0.0000  0.9050  0.0000  0.0000  0.0000  0.0000  0.0000      0.0000  0.0000  0.0000  0.0000  0.0000  0.0000  0.0000  0.0000  0.0000  0.0000
atom =  15  type =  1  l = 2
 
 onsite density matrix
 
spin component  1
 
  0.1065  0.0006 -0.0002  0.0005  0.0006
  0.0006  0.0998 -0.0001  0.0000 -0.0001
 -0.0002 -0.0001  0.2422 -0.0005 -0.0003
  0.0005  0.0000 -0.0005  0.1001  0.0006
  0.0006 -0.0001 -0.0003  0.0006  0.2509
 
spin component  2
 
  0.1064  0.0006 -0.0002  0.0006  0.0006
  0.0006  0.0997 -0.0001  0.0001 -0.0000
 -0.0002 -0.0001  0.2422 -0.0005 -0.0003
  0.0006  0.0001 -0.0005  0.1001  0.0006
  0.0006 -0.0000 -0.0003  0.0006  0.2509
 
 occupancies and eigenvectors
 
  o =  0.0997  v =  0.0000  0.0000  0.0000  0.0000  0.0000 -0.0809  0.9942  0.0005 -0.0711  0.0009      0.0000  0.0000  0.0000  0.0000  0.0000  0.0000  0.0000  0.0000  0.0000  0.0000
  o =  0.0997  v =  0.0955 -0.9953 -0.0006 -0.0138 -0.0006  0.0000  0.0000  0.0000  0.0000  0.0000      0.0000  0.0000  0.0000  0.0000  0.0000  0.0000  0.0000  0.0000  0.0000  0.0000
  o =  0.1000  v =  0.0000  0.0000  0.0000  0.0000  0.0000 -0.0980  0.0630  0.0032  0.9932 -0.0034      0.0000  0.0000  0.0000  0.0000  0.0000  0.0000  0.0000  0.0000  0.0000  0.0000
  o =  0.1000  v = -0.0797 -0.0215  0.0032  0.9966 -0.0035  0.0000  0.0000  0.0000  0.0000  0.0000      0.0000  0.0000  0.0000  0.0000  0.0000  0.0000  0.0000  0.0000  0.0000  0.0000
  o =  0.1065  v =  0.0000  0.0000  0.0000  0.0000  0.0000  0.9919  0.0873  0.0018  0.0923 -0.0045      0.0000  0.0000  0.0000  0.0000  0.0000  0.0000  0.0000  0.0000  0.0000  0.0000
  o =  0.1066  v =  0.9922  0.0941  0.0014  0.0813 -0.0042  0.0000  0.0000  0.0000  0.0000  0.0000      0.0000  0.0000  0.0000  0.0000  0.0000  0.0000  0.0000  0.0000  0.0000  0.0000
  o =  0.2422  v =  0.0000  0.0000  0.0000  0.0000  0.0000  0.0014  0.0008 -0.9996  0.0032 -0.0291      0.0000  0.0000  0.0000  0.0000  0.0000  0.0000  0.0000  0.0000  0.0000  0.0000
  o =  0.2422  v =  0.0010  0.0006 -0.9996  0.0032 -0.0294  0.0000  0.0000  0.0000  0.0000  0.0000      0.0000  0.0000  0.0000  0.0000  0.0000  0.0000  0.0000  0.0000  0.0000  0.0000
  o =  0.2509  v = -0.0040  0.0003  0.0294 -0.0039 -0.9996  0.0000  0.0000  0.0000  0.0000  0.0000      0.0000  0.0000  0.0000  0.0000  0.0000  0.0000  0.0000  0.0000  0.0000  0.0000
  o =  0.2509  v =  0.0000  0.0000  0.0000  0.0000  0.0000 -0.0043  0.0002  0.0291 -0.0039 -0.9996      0.0000  0.0000  0.0000  0.0000  0.0000  0.0000  0.0000  0.0000  0.0000  0.0000
atom =  16  type =  1  l = 2
 
 onsite density matrix
 
spin component  1
 
  0.1077 -0.0020 -0.0000  0.0000  0.0000
 -0.0020  0.0994 -0.0000  0.0000  0.0000
 -0.0000 -0.0000  0.2400  0.0048 -0.0068
  0.0000  0.0000  0.0048  0.1025 -0.0058
  0.0000  0.0000 -0.0068 -0.0058  0.2524
 
spin component  2
 
  0.1057 -0.0013 -0.0000  0.0000  0.0000
 -0.0013  0.0991 -0.0000  0.0000  0.0000
 -0.0000 -0.0000  0.2401  0.0050 -0.0070
  0.0000  0.0000  0.0050  0.1028 -0.0061
  0.0000  0.0000 -0.0070 -0.0061  0.2527
 
 occupancies and eigenvectors
 
  o =  0.0989  v =  0.0000  0.0000  0.0000  0.0000  0.0000 -0.1848 -0.9828 -0.0000  0.0002  0.0000      0.0000  0.0000  0.0000  0.0000  0.0000  0.0000  0.0000  0.0000  0.0000  0.0000
  o =  0.0990  v = -0.2189 -0.9758 -0.0000  0.0003  0.0000  0.0000  0.0000  0.0000  0.0000  0.0000      0.0000  0.0000  0.0000  0.0000  0.0000  0.0000  0.0000  0.0000  0.0000  0.0000
  o =  0.1022  v =  0.0003 -0.0003  0.0330 -0.9988 -0.0369  0.0000  0.0000  0.0000  0.0000  0.0000      0.0000  0.0000  0.0000  0.0000  0.0000  0.0000  0.0000  0.0000  0.0000  0.0000
  o =  0.1024  v =  0.0000  0.0000  0.0000  0.0000  0.0000  0.0007 -0.0003  0.0346 -0.9986 -0.0391      0.0000  0.0000  0.0000  0.0000  0.0000  0.0000  0.0000  0.0000  0.0000  0.0000
  o =  0.1059  v =  0.0000  0.0000  0.0000  0.0000  0.0000  0.9828 -0.1848 -0.0000  0.0007  0.0000      0.0000  0.0000  0.0000  0.0000  0.0000  0.0000  0.0000  0.0000  0.0000  0.0000
  o =  0.1082  v =  0.9758 -0.2189 -0.0000  0.0004  0.0000  0.0000  0.0000  0.0000  0.0000  0.0000      0.0000  0.0000  0.0000  0.0000  0.0000  0.0000  0.0000  0.0000  0.0000  0.0000
  o =  0.2370  v =  0.0000  0.0000  0.0000  0.0000  0.0000 -0.0000  0.0000 -0.9105 -0.0154 -0.4133      0.0000  0.0000  0.0000  0.0000  0.0000  0.0000  0.0000  0.0000  0.0000  0.0000
  o =  0.2370  v = -0.0000  0.0000 -0.9120 -0.0150 -0.4100  0.0000  0.0000  0.0000  0.0000  0.0000      0.0000  0.0000  0.0000  0.0000  0.0000  0.0000  0.0000  0.0000  0.0000  0.0000
  o =  0.2558  v =  0.0000  0.0000 -0.4089 -0.0472  0.9114  0.0000  0.0000  0.0000  0.0000  0.0000      0.0000  0.0000  0.0000  0.0000  0.0000  0.0000  0.0000  0.0000  0.0000  0.0000
  o =  0.2562  v =  0.0000  0.0000  0.0000  0.0000  0.0000  0.0000  0.0000 -0.4122 -0.0499  0.9097      0.0000  0.0000  0.0000  0.0000  0.0000  0.0000  0.0000  0.0000  0.0000  0.0000
atom =  17  type =  1  l = 2
 
 onsite density matrix
 
spin component  1
 
  0.0601 -0.0000 -0.0000  0.0000  0.0000
 -0.0000  0.8858 -0.0000 -0.0000 -0.0000
 -0.0000 -0.0000  0.1380 -0.0000 -0.0083
  0.0000 -0.0000 -0.0000  0.0645  0.0000
  0.0000 -0.0000 -0.0083  0.0000  0.1615
 
spin component  2
 
  0.0530  0.0000 -0.0000  0.0000  0.0000
  0.0000  0.0407  0.0000  0.0000  0.0000
 -0.0000  0.0000  0.1290 -0.0000 -0.0062
  0.0000  0.0000 -0.0000  0.0578  0.0000
  0.0000  0.0000 -0.0062  0.0000  0.1506
 
 occupancies and eigenvectors
 
  o =  0.0407  v =  0.0000  0.0000  0.0000  0.0000  0.0000  0.0000 -1.0000  0.0000  0.0000  0.0000      0.0000  0.0000  0.0000  0.0000  0.0000  0.0000  0.0000  0.0000  0.0000  0.0000
  o =  0.0530  v =  0.0000  0.0000  0.0000  0.0000  0.0000  1.0000  0.0000  0.0000 -0.0000 -0.0000      0.0000  0.0000  0.0000  0.0000  0.0000  0.0000  0.0000  0.0000  0.0000  0.0000
  o =  0.0578  v =  0.0000  0.0000  0.0000  0.0000  0.0000 -0.0000 -0.0000 -0.0000 -1.0000  0.0000      0.0000  0.0000  0.0000  0.0000  0.0000  0.0000  0.0000  0.0000  0.0000  0.0000
  o =  0.0601  v =  1.0000  0.0000  0.0000 -0.0000 -0.0000  0.0000  0.0000  0.0000  0.0000  0.0000      0.0000  0.0000  0.0000  0.0000  0.0000  0.0000  0.0000  0.0000  0.0000  0.0000
  o =  0.0645  v =  0.0000  0.0000  0.0000  1.0000 -0.0000  0.0000  0.0000  0.0000  0.0000  0.0000      0.0000  0.0000  0.0000  0.0000  0.0000  0.0000  0.0000  0.0000  0.0000  0.0000
  o =  0.1273  v =  0.0000  0.0000  0.0000  0.0000  0.0000 -0.0000  0.0000  0.9659 -0.0000  0.2591      0.0000  0.0000  0.0000  0.0000  0.0000  0.0000  0.0000  0.0000  0.0000  0.0000
  o =  0.1353  v = -0.0000  0.0000  0.9531 -0.0000  0.3026  0.0000  0.0000  0.0000  0.0000  0.0000      0.0000  0.0000  0.0000  0.0000  0.0000  0.0000  0.0000  0.0000  0.0000  0.0000
  o =  0.1523  v =  0.0000  0.0000  0.0000  0.0000  0.0000  0.0000  0.0000 -0.2591  0.0000  0.9659      0.0000  0.0000  0.0000  0.0000  0.0000  0.0000  0.0000  0.0000  0.0000  0.0000
  o =  0.1642  v =  0.0000  0.0000 -0.3026  0.0000  0.9531  0.0000  0.0000  0.0000  0.0000  0.0000      0.0000  0.0000  0.0000  0.0000  0.0000  0.0000  0.0000  0.0000  0.0000  0.0000
  o =  0.8858  v = -0.0000  1.0000 -0.0000 -0.0000 -0.0000  0.0000  0.0000  0.0000  0.0000  0.0000      0.0000  0.0000  0.0000  0.0000  0.0000  0.0000  0.0000  0.0000  0.0000  0.0000
atom =  18  type =  1  l = 2
 
 onsite density matrix
 
spin component  1
 
  0.1077  0.0020  0.0000  0.0000 -0.0000
  0.0020  0.0994 -0.0000 -0.0000  0.0000
  0.0000 -0.0000  0.2400 -0.0048 -0.0068
  0.0000 -0.0000 -0.0048  0.1025  0.0058
 -0.0000  0.0000 -0.0068  0.0058  0.2524
 
spin component  2
 
  0.1057  0.0013  0.0000  0.0000 -0.0000
  0.0013  0.0991 -0.0000 -0.0000  0.0000
  0.0000 -0.0000  0.2401 -0.0050 -0.0070
  0.0000 -0.0000 -0.0050  0.1028  0.0061
 -0.0000  0.0000 -0.0070  0.0061  0.2527
 
 occupancies and eigenvectors
 
  o =  0.0989  v =  0.0000  0.0000  0.0000  0.0000  0.0000  0.1848 -0.9828 -0.0000 -0.0002  0.0000      0.0000  0.0000  0.0000  0.0000  0.0000  0.0000  0.0000  0.0000  0.0000  0.0000
  o =  0.0990  v =  0.2189 -0.9758 -0.0000 -0.0003  0.0000  0.0000  0.0000  0.0000  0.0000  0.0000      0.0000  0.0000  0.0000  0.0000  0.0000  0.0000  0.0000  0.0000  0.0000  0.0000
  o =  0.1022  v =  0.0003  0.0003 -0.0330 -0.9988  0.0369  0.0000  0.0000  0.0000  0.0000  0.0000      0.0000  0.0000  0.0000  0.0000  0.0000  0.0000  0.0000  0.0000  0.0000  0.0000
  o =  0.1024  v =  0.0000  0.0000  0.0000  0.0000  0.0000  0.0007  0.0003 -0.0346 -0.9986  0.0391      0.0000  0.0000  0.0000  0.0000  0.0000  0.0000  0.0000  0.0000  0.0000  0.0000
  o =  0.1059  v =  0.0000  0.0000  0.0000  0.0000  0.0000  0.9828  0.1848  0.0000  0.0007 -0.0000      0.0000  0.0000  0.0000  0.0000  0.0000  0.0000  0.0000  0.0000  0.0000  0.0000
  o =  0.1082  v =  0.9758  0.2189  0.0000  0.0004 -0.0000  0.0000  0.0000  0.0000  0.0000  0.0000      0.0000  0.0000  0.0000  0.0000  0.0000  0.0000  0.0000  0.0000  0.0000  0.0000
  o =  0.2370  v =  0.0000  0.0000  0.0000  0.0000  0.0000  0.0000  0.0000 -0.9105  0.0154 -0.4133      0.0000  0.0000  0.0000  0.0000  0.0000  0.0000  0.0000  0.0000  0.0000  0.0000
  o =  0.2370  v =  0.0000  0.0000 -0.9120  0.0150 -0.4100  0.0000  0.0000  0.0000  0.0000  0.0000      0.0000  0.0000  0.0000  0.0000  0.0000  0.0000  0.0000  0.0000  0.0000  0.0000
  o =  0.2558  v = -0.0000  0.0000 -0.4089  0.0472  0.9114  0.0000  0.0000  0.0000  0.0000  0.0000      0.0000  0.0000  0.0000  0.0000  0.0000  0.0000  0.0000  0.0000  0.0000  0.0000
  o =  0.2562  v =  0.0000  0.0000  0.0000  0.0000  0.0000 -0.0000  0.0000 -0.4121  0.0499  0.9097      0.0000  0.0000  0.0000  0.0000  0.0000  0.0000  0.0000  0.0000  0.0000  0.0000
atom =  19  type =  1  l = 2
 
 onsite density matrix
 
spin component  1
 
  0.1065  0.0000 -0.0000  0.0004 -0.0000
  0.0000  0.1002 -0.0006  0.0000 -0.0008
 -0.0000 -0.0006  0.2420 -0.0000 -0.0003
  0.0004  0.0000 -0.0000  0.1000  0.0000
 -0.0000 -0.0008 -0.0003  0.0000  0.2506
 
spin component  2
 
  0.1064 -0.0000 -0.0000  0.0004 -0.0000
 -0.0000  0.1001 -0.0006  0.0000 -0.0008
 -0.0000 -0.0006  0.2420 -0.0000 -0.0003
  0.0004  0.0000 -0.0000  0.1000  0.0000
 -0.0000 -0.0008 -0.0003  0.0000  0.2506
 
 occupancies and eigenvectors
 
  o =  0.0999  v =  0.0000  0.0000  0.0000  0.0000  0.0000  0.0589  0.0000 -0.0000 -0.9983  0.0000      0.0000  0.0000  0.0000  0.0000  0.0000  0.0000  0.0000  0.0000  0.0000  0.0000
  o =  0.0999  v =  0.0591  0.0000 -0.0000 -0.9983  0.0000  0.0000  0.0000  0.0000  0.0000  0.0000      0.0000  0.0000  0.0000  0.0000  0.0000  0.0000  0.0000  0.0000  0.0000  0.0000
  o =  0.1001  v =  0.0000  0.0000  0.0000  0.0000  0.0000  0.0000  1.0000  0.0041  0.0000  0.0053      0.0000  0.0000  0.0000  0.0000  0.0000  0.0000  0.0000  0.0000  0.0000  0.0000
  o =  0.1002  v =  0.0000 -1.0000 -0.0040 -0.0000 -0.0054  0.0000  0.0000  0.0000  0.0000  0.0000      0.0000  0.0000  0.0000  0.0000  0.0000  0.0000  0.0000  0.0000  0.0000  0.0000
  o =  0.1065  v =  0.0000  0.0000  0.0000  0.0000  0.0000 -0.9983  0.0000 -0.0000 -0.0589 -0.0000      0.0000  0.0000  0.0000  0.0000  0.0000  0.0000  0.0000  0.0000  0.0000  0.0000
  o =  0.1065  v = -0.9983 -0.0000 -0.0000 -0.0591 -0.0000  0.0000  0.0000  0.0000  0.0000  0.0000      0.0000  0.0000  0.0000  0.0000  0.0000  0.0000  0.0000  0.0000  0.0000  0.0000
  o =  0.2420  v =  0.0000  0.0000  0.0000  0.0000  0.0000  0.0000  0.0042 -0.9995  0.0000 -0.0310      0.0000  0.0000  0.0000  0.0000  0.0000  0.0000  0.0000  0.0000  0.0000  0.0000
  o =  0.2420  v =  0.0000  0.0042 -0.9995  0.0000 -0.0314  0.0000  0.0000  0.0000  0.0000  0.0000      0.0000  0.0000  0.0000  0.0000  0.0000  0.0000  0.0000  0.0000  0.0000  0.0000
  o =  0.2506  v =  0.0000  0.0000  0.0000  0.0000  0.0000  0.0000  0.0052  0.0310 -0.0000 -0.9995      0.0000  0.0000  0.0000  0.0000  0.0000  0.0000  0.0000  0.0000  0.0000  0.0000
  o =  0.2506  v = -0.0000 -0.0053 -0.0314  0.0000  0.9995  0.0000  0.0000  0.0000  0.0000  0.0000      0.0000  0.0000  0.0000  0.0000  0.0000  0.0000  0.0000  0.0000  0.0000  0.0000
atom =  20  type =  1  l = 2
 
 onsite density matrix
 
spin component  1
 
  0.1062  0.0007 -0.0002  0.0005 -0.0007
  0.0007  0.1007 -0.0003  0.0001 -0.0013
 -0.0002 -0.0003  0.2424 -0.0005  0.0006
  0.0005  0.0001 -0.0005  0.0993  0.0006
 -0.0007 -0.0013  0.0006  0.0006  0.2501
 
spin component  2
 
  0.1061  0.0007 -0.0002  0.0003 -0.0007
  0.0007  0.1007 -0.0003  0.0000 -0.0013
 -0.0002 -0.0003  0.2424 -0.0005  0.0006
[...]
      9.50606      1.90127      4.87273         0.000689     -0.000344     -0.000214
      1.90206      5.70419      4.87272        -0.000700      0.000344     -0.000216
      5.70406      5.69835      4.89079        -0.000000      0.002720     -0.003429
      9.50607      5.70419      4.87272         0.000702      0.000343     -0.000218
      1.90749      9.50678      4.84905         0.002118     -0.000003      0.004977
      5.70406      9.50675      4.90335         0.000084     -0.000024      0.001205
      9.50064      9.50678      4.84905        -0.002070     -0.000001      0.004978
     11.40813      1.89966      2.43503         0.000003     -0.003117     -0.001508
      3.80552      1.89893      2.43889        -0.002157      0.000087      0.000217
      7.60261      1.89893      2.43889         0.002152      0.000083      0.000217
     11.40813      5.70578      2.43502         0.000003      0.003152     -0.001513
      3.80552      5.70651      2.43890        -0.002160     -0.000082      0.000217
      7.60261      5.70651      2.43890         0.002156     -0.000076      0.000215
     11.40813      9.50680      2.43235         0.000003      0.000028     -0.005764
      3.82697      9.50678      2.43601        -0.001745     -0.000005      0.007599
      7.58116      9.50678      2.43601         0.001734      0.000001      0.007575
      1.90434     11.40392      7.30692        -0.000510      0.002296     -0.000636
      5.70406     11.40524      7.30287         0.000006      0.000932     -0.006902
      9.50379     11.40392      7.30692         0.000512      0.002304     -0.000629
      1.90199      3.80272      7.31215         0.000803      0.000007      0.002171
      5.70406      3.80269      7.32684        -0.000001      0.000011      0.001086
      9.50614      3.80272      7.31215        -0.000802      0.000006      0.002174
      1.90435      7.60962      7.30692        -0.000515     -0.002303     -0.000636
      5.70406      7.60819      7.30290        -0.000005     -0.000910     -0.006904
      9.50378      7.60962      7.30692         0.000517     -0.002309     -0.000629
     11.40813      0.00344      2.00652        -0.000001      0.005871      0.000035
      3.78294      0.00601      2.00973         0.002188     -0.000454      0.000730
      7.62519      0.00601      2.00973        -0.002186     -0.000452      0.000732
      0.00000      3.80271      2.01338        -0.000000      0.000021     -0.000117
      3.80088      3.80270      2.01890         0.004605      0.000002     -0.002039
      7.60724      3.80270      2.01890        -0.004606      0.000002     -0.002038
     11.40813      7.60202      2.00651        -0.000001     -0.005809      0.000027
      3.78291      7.59941      2.00973         0.002191      0.000421      0.000738
      7.62522      7.59941      2.00973        -0.002190      0.000420      0.000743
      1.89751      1.90195      6.88700         0.000249      0.002651      0.000578
      5.70406      1.91903      6.92537        -0.000001     -0.001197      0.000742
      9.51062      1.90195      6.88700        -0.000249      0.002649      0.000577
      1.89748      5.70349      6.88703         0.000194     -0.002652      0.000577
      5.70406      5.68637      6.92536        -0.000000      0.001158      0.000765
      9.51065      5.70349      6.88703        -0.000194     -0.002649      0.000575
      1.91023      9.50677      6.88110         0.001224     -0.000003      0.001049
      5.70406      9.50672      6.98060        -0.000016     -0.000020      0.005499
      9.49790      9.50677      6.88110        -0.001224     -0.000004      0.001043
      0.00000      1.90353      4.44787        -0.000003     -0.001904     -0.000628
      3.79698      1.91841      4.44978        -0.000973      0.002127     -0.000590
      7.61114      1.91841      4.44978         0.000975      0.002129     -0.000590
     11.40813      5.70205      4.44786        -0.000004      0.001887     -0.000647
      3.79698      5.68718      4.44977        -0.000976     -0.002119     -0.000587
      7.61115      5.68719      4.44977         0.000979     -0.002117     -0.000587
     11.40813      9.50668      4.43990        -0.000013      0.000004      0.008660
      3.77596      9.50672      4.42531        -0.000054     -0.000006     -0.002778
      7.63217      9.50672      4.42531        -0.000017     -0.000060     -0.002790
      1.89754      0.00560      9.32017        -0.003848     -0.001246      0.000697
      5.70406      0.01601      9.34604         0.000001     -0.000699     -0.003258
      9.51059      0.00560      9.32017         0.003846     -0.001247      0.000697
      1.89722      3.80265      9.32840         0.004551      0.000002     -0.000125
      5.70406      3.80264      9.34602        -0.000000      0.000010      0.000343
      9.51090      3.80265      9.32840        -0.004551      0.000002     -0.000127
      1.89753      7.59982      9.32014        -0.003864      0.001237      0.000686
      5.70406      7.58924      9.34607         0.000002      0.000679     -0.003252
      9.51060      7.59982      9.32014         0.003864      0.001237      0.000685
      1.89651      0.00285      5.29256        -0.000558      0.001121      0.000789
      5.70407      0.07014      5.33393        -0.000046      0.000616      0.001803
      9.51162      0.00285      5.29256         0.000557      0.001110      0.000784
      1.89207      3.80272      5.30004        -0.001055      0.000001      0.000823
      5.70406      3.80270      5.32372        -0.000003     -0.000006     -0.007089
      9.51606      3.80272      5.30003         0.001054      0.000002      0.000824
      1.89651      7.60259      5.29258        -0.000576     -0.001127      0.000790
      5.70406      7.53526      5.33396         0.000005     -0.000610      0.001806
      9.51161      7.60259      5.29258         0.000572     -0.001116      0.000785
      0.00000      1.90289      0.41982        -0.000000     -0.004621      0.000282
      3.79402      1.90474      0.42460         0.000726      0.004245     -0.000551
      7.61410      1.90474      0.42460        -0.000725      0.004243     -0.000550
      0.00000      5.70257      0.41980        -0.000001      0.004646      0.000276
      3.79399      5.70069      0.42460         0.000707     -0.004262     -0.000534
      7.61414      5.70069      0.42460        -0.000707     -0.004260     -0.000533
     11.40813      9.50677      0.41100        -0.000000      0.000016     -0.000185
      3.78822      9.50675      0.40428         0.002740      0.000003      0.002336
      7.61990      9.50675      0.40428        -0.002740      0.000002      0.002341
      1.89879      1.90473      2.85860        -0.001139      0.000038     -0.000442
      5.70406      1.89733      2.86052         0.000001     -0.001708     -0.001201
      9.50933      1.90473      2.85860         0.001139      0.000037     -0.000440
      1.89879      5.70079      2.85860        -0.001143     -0.000042     -0.000450
      5.70406      5.70813      2.86051         0.000001      0.001626     -0.001209
      9.50933      5.70079      2.85860         0.001142     -0.000040     -0.000448
      1.89243      9.50681      2.83994        -0.000202      0.000002     -0.001952
      5.70406      9.50672      2.74249         0.000020      0.000011     -0.003220
      9.51570      9.50681      2.83994         0.000198      0.000000     -0.001946
      0.00000     11.40422      7.72653        -0.000002     -0.005089      0.001725
      3.79768      0.01392      7.73698         0.001123     -0.001837     -0.000996
      7.61045      0.01392      7.73698        -0.001119     -0.001835     -0.000995
      0.00000      3.80263      7.73464        -0.000002     -0.000009      0.000490
      3.79529      3.80266      7.74454        -0.004479      0.000033      0.000287
      7.61284      3.80266      7.74454         0.004481      0.000033      0.000285
      0.00000      7.60948      7.72652        -0.000003      0.005194      0.001721
      3.79769      7.59137      7.73701         0.001124      0.001835     -0.000994
      7.61044      7.59137      7.73701        -0.001121      0.001834     -0.000995
 -----------------------------------------------------------------------------------
    total drift:                                0.000005     -0.002409     -0.004836


--------------------------------------------------------------------------------------------------------



  FREE ENERGIE OF THE ION-ELECTRON SYSTEM (eV)
  ---------------------------------------------------
  free  energy   TOTEN  =      -862.54905867 eV

  energy  without entropy=     -862.54905867  energy(sigma->0) =     -862.54905867
 


--------------------------------------------------------------------------------------------------------


    POTLOK:  cpu time    0.1753: real time    0.1756


--------------------------------------------------------------------------------------------------------


 writing wavefunctions
     LOOP+:  cpu time  773.3388: real time  773.5837
    4ORBIT:  cpu time    0.0000: real time    0.0000
 


 total charge     
 
# of ion       s       p       d       tot
------------------------------------------
    1        2.227   6.301   1.571  10.099
    2        2.227   6.300   1.569  10.096
    3        2.227   6.300   1.569  10.096
    4        2.228   6.302   1.573  10.104
    5        2.227   6.302   1.572  10.101
    6        2.227   6.302   1.572  10.101
    7        2.227   6.301   1.571  10.099
    8        2.227   6.300   1.569  10.096
    9        2.227   6.300   1.569  10.096
   10        2.227   6.301   1.572  10.099
   11        2.228   6.302   1.587  10.117
   12        2.227   6.301   1.572  10.099
   13        2.227   6.301   1.572  10.099
   14        2.228   6.302   1.587  10.117
   15        2.227   6.301   1.572  10.099
   16        2.227   6.300   1.575  10.102
   17        2.178   6.209   1.751  10.139
   18        2.227   6.300   1.575  10.102
   19        2.227   6.300   1.571  10.099
   20        2.227   6.300   1.570  10.097
   21        2.227   6.300   1.570  10.097
   22        2.227   6.300   1.571  10.099
   23        2.227   6.300   1.570  10.097
   24        2.227   6.300   1.570  10.097
   25        2.228   6.303   1.575  10.107
   26        2.227   6.302   1.574  10.104
   27        2.227   6.302   1.574  10.104
   28        2.227   6.300   1.570  10.096
   29        2.229   6.303   1.572  10.104
   30        2.227   6.300   1.570  10.096
   31        2.227   6.300   1.571  10.097
   32        2.230   6.307   1.581  10.119
   33        2.227   6.300   1.571  10.097
   34        2.227   6.300   1.570  10.096
   35        2.229   6.303   1.572  10.104
   36        2.227   6.300   1.570  10.096
   37        1.595   3.539   0.000   5.134
   38        1.595   3.539   0.000   5.134
   39        1.595   3.539   0.000   5.134
   40        1.595   3.539   0.000   5.134
   41        1.595   3.538   0.000   5.133
   42        1.595   3.538   0.000   5.133
   43        1.595   3.539   0.000   5.134
   44        1.595   3.539   0.000   5.134
   45        1.595   3.539   0.000   5.134
   46        1.595   3.538   0.000   5.133
   47        1.596   3.538   0.000   5.134
   48        1.595   3.538   0.000   5.133
   49        1.595   3.538   0.000   5.133
   50        1.596   3.538   0.000   5.134
   51        1.595   3.538   0.000   5.133
   52        1.595   3.538   0.000   5.132
   53        1.594   3.538   0.000   5.131
   54        1.595   3.538   0.000   5.132
   55        1.595   3.539   0.000   5.134
   56        1.595   3.539   0.000   5.134
   57        1.595   3.539   0.000   5.134
   58        1.595   3.539   0.000   5.134
   59        1.595   3.539   0.000   5.134
   60        1.595   3.539   0.000   5.134
   61        1.595   3.540   0.000   5.135
   62        1.595   3.548   0.000   5.143
   63        1.595   3.548   0.000   5.143
   64        1.595   3.538   0.000   5.133
   65        1.595   3.537   0.000   5.132
   66        1.595   3.538   0.000   5.133
   67        1.595   3.539   0.000   5.134
   68        1.595   3.539   0.000   5.134
   69        1.595   3.539   0.000   5.134
   70        1.595   3.538   0.000   5.133
   71        1.595   3.537   0.000   5.132
   72        1.595   3.538   0.000   5.133
   73        1.595   3.538   0.000   5.133
   74        1.597   3.543   0.000   5.141
   75        1.595   3.538   0.000   5.133
   76        1.595   3.539   0.000   5.134
   77        1.596   3.545   0.000   5.141
   78        1.595   3.539   0.000   5.134
   79        1.595   3.538   0.000   5.133
   80        1.597   3.543   0.000   5.141
   81        1.595   3.538   0.000   5.133
   82        1.595   3.539   0.000   5.134
   83        1.595   3.539   0.000   5.134
   84        1.595   3.539   0.000   5.134
   85        1.595   3.539   0.000   5.134
   86        1.595   3.539   0.000   5.134
   87        1.595   3.539   0.000   5.134
   88        1.595   3.539   0.000   5.133
   89        1.595   3.538   0.000   5.132
   90        1.595   3.538   0.000   5.132
   91        1.595   3.538   0.000   5.133
   92        1.594   3.538   0.000   5.132
   93        1.595   3.538   0.000   5.133
   94        1.595   3.538   0.000   5.133
   95        1.594   3.538   0.000   5.132
   96        1.595   3.538   0.000   5.133
   97        1.595   3.536   0.000   5.131
   98        1.595   3.533   0.000   5.128
   99        1.595   3.536   0.000   5.131
  100        1.595   3.538   0.000   5.132
  101        1.595   3.539   0.000   5.134
  102        1.595   3.539   0.000   5.134
  103        1.595   3.539   0.000   5.134
  104        1.595   3.540   0.000   5.135
  105        1.595   3.540   0.000   5.135
  106        1.595   3.538   0.000   5.132
  107        1.595   3.539   0.000   5.134
  108        1.595   3.539   0.000   5.134
--------------------------------------------------
tot        194.966 481.547  56.789 733.302
 


 magnetization (x)
 
# of ion       s       p       d       tot
------------------------------------------
    1        0.000  -0.000   0.000   0.000
    2        0.000   0.000   0.000   0.000
    3        0.000   0.000   0.000   0.000
    4        0.000   0.000   0.000   0.000
    5       -0.000   0.000   0.000   0.000
    6       -0.000   0.000   0.000   0.000
    7        0.000  -0.000   0.000   0.000
    8        0.000   0.000   0.000   0.000
    9        0.000   0.000   0.000   0.000
   10        0.000  -0.000   0.000   0.000
   11        0.001   0.001   0.020   0.021
   12        0.000  -0.000   0.000   0.000
   13        0.000  -0.000   0.000   0.000
   14        0.001   0.001   0.020   0.021
   15        0.000  -0.000   0.000   0.000
   16       -0.000  -0.000   0.004   0.004
   17        0.006   0.008   0.852   0.866
   18       -0.000  -0.000   0.004   0.004
   19        0.000   0.000   0.000   0.000
   20        0.000   0.000   0.001   0.001
   21        0.000   0.000   0.001   0.001
   22        0.000   0.000   0.000   0.000
   23        0.000   0.000   0.001   0.001
   24        0.000   0.000   0.001   0.001
   25       -0.000  -0.000   0.000   0.000
   26        0.000  -0.000   0.007   0.007
   27        0.000  -0.000   0.007   0.007
   28        0.000  -0.000   0.001   0.001
   29        0.001   0.000   0.005   0.006
   30        0.000  -0.000   0.001   0.001
   31       -0.000  -0.000   0.000   0.000
   32       -0.000   0.000   0.002   0.002
   33       -0.000  -0.000   0.000   0.000
   34        0.000  -0.000   0.001   0.001
   35        0.001   0.000   0.005   0.006
   36        0.000  -0.000   0.001   0.001
   37       -0.000  -0.000   0.000  -0.000
   38       -0.000  -0.000   0.000  -0.000
   39       -0.000  -0.000   0.000  -0.000
   40       -0.000  -0.000   0.000  -0.000
   41       -0.000  -0.000   0.000  -0.000
   42       -0.000  -0.000   0.000  -0.000
   43       -0.000  -0.000   0.000  -0.000
   44       -0.000  -0.000   0.000  -0.000
   45       -0.000  -0.000   0.000  -0.000
   46       -0.000  -0.000   0.000  -0.000
   47        0.000  -0.000   0.000  -0.000
   48       -0.000  -0.000   0.000  -0.000
   49       -0.000  -0.000   0.000  -0.000
   50        0.000  -0.000   0.000  -0.000
   51       -0.000  -0.000   0.000  -0.000
   52       -0.000  -0.000   0.000  -0.000
   53       -0.000  -0.001   0.000  -0.002
   54       -0.000  -0.000   0.000  -0.000
   55       -0.000  -0.000   0.000  -0.000
   56       -0.000  -0.001   0.000  -0.001
   57       -0.000  -0.001   0.000  -0.001
   58       -0.000  -0.000   0.000  -0.000
   59       -0.000  -0.001   0.000  -0.001
   60       -0.000  -0.001   0.000  -0.001
   61       -0.000  -0.001   0.000  -0.001
   62       -0.000  -0.007   0.000  -0.008
   63       -0.000  -0.007   0.000  -0.008
   64       -0.000  -0.000   0.000  -0.000
   65        0.000   0.000   0.000   0.000
   66       -0.000  -0.000   0.000  -0.000
   67       -0.000  -0.000   0.000  -0.000
   68       -0.000  -0.000   0.000  -0.000
   69       -0.000  -0.000   0.000  -0.000
   70       -0.000  -0.000   0.000  -0.000
   71        0.000   0.000   0.000   0.000
   72       -0.000  -0.000   0.000  -0.000
   73       -0.000  -0.000   0.000  -0.000
   74        0.000  -0.002   0.000  -0.002
   75       -0.000  -0.000   0.000  -0.000
   76       -0.000  -0.000   0.000  -0.000
   77        0.000  -0.001   0.000  -0.000
   78       -0.000  -0.000   0.000  -0.000
   79       -0.000  -0.000   0.000  -0.000
   80        0.000  -0.002   0.000  -0.002
   81       -0.000  -0.000   0.000  -0.000
   82       -0.000  -0.000   0.000  -0.000
   83        0.000   0.000   0.000   0.000
   84        0.000   0.000   0.000   0.000
   85       -0.000  -0.000   0.000  -0.000
   86        0.000   0.000   0.000   0.000
   87        0.000   0.000   0.000   0.000
   88       -0.000  -0.000   0.000  -0.000
   89       -0.000  -0.000   0.000  -0.000
   90       -0.000  -0.000   0.000  -0.000
   91       -0.000  -0.000   0.000  -0.000
   92       -0.000  -0.000   0.000  -0.000
   93       -0.000  -0.000   0.000  -0.000
   94       -0.000  -0.000   0.000  -0.000
   95       -0.000  -0.000   0.000  -0.000
   96       -0.000  -0.000   0.000  -0.000
   97       -0.000  -0.001   0.000  -0.001
   98       -0.000  -0.000   0.000  -0.000
   99       -0.000  -0.001   0.000  -0.001
  100       -0.000  -0.000   0.000  -0.000
  101       -0.000  -0.000   0.000  -0.000
  102       -0.000  -0.000   0.000  -0.000
  103       -0.000  -0.000   0.000  -0.000
  104       -0.000  -0.000   0.000  -0.000
  105       -0.000  -0.000   0.000  -0.000
  106       -0.000  -0.000   0.000  -0.000
  107       -0.000  -0.000   0.000  -0.000
  108       -0.000  -0.000   0.000  -0.000
--------------------------------------------------
tot          0.008  -0.023   0.933   0.919
 
 BZINTS: Fermi energy:  5.671891;865.000000 electrons
         Band energy:***********;  BLOECHL correction:  0.000000

 total amount of memory used by VASP MPI-rank0   121301. kBytes
=======================================================================

   base      :      30000. kBytes
   nonl-proj :       4314. kBytes
   fftplans  :       3336. kBytes
   grid      :       8284. kBytes
   one-center:        155. kBytes
   wavefun   :      75212. kBytes
 
  
  
 General timing and accounting informations for this job:
 ========================================================
  
                  Total CPU time used (sec):      819.265
                            User time (sec):      811.081
                          System time (sec):        8.183
                         Elapsed time (sec):      820.110
  
                   Maximum memory used (kb):      254724.
                   Average memory used (kb):           0.
  
                          Minor page faults:        28811
                          Major page faults:            0
                 Voluntary context switches:           67
