 vasp.5.4.4.18Apr17-6-g9f103f2a35 (build Apr 16 2019 21:13:15) complex          
  
 executed on             OCC_CTRL date 2019.04.23  21:09:24
 running on   44 total cores
 distrk:  each k-point on   44 cores,    1 groups
 distr:  one band on NCORES_PER_BAND=  22 cores,    2 groups


--------------------------------------------------------------------------------------------------------


 INCAR:
 POTCAR:    PAW_PBE Ti_sv 26Sep2005               
 POTCAR:    PAW_PBE O 08Apr2002                   

 ----------------------------------------------------------------------------- 
|                                                                             |
|           W    W    AA    RRRRR   N    N  II  N    N   GGGG   !!!           |
|           W    W   A  A   R    R  NN   N  II  NN   N  G    G  !!!           |
|           W    W  A    A  R    R  N N  N  II  N N  N  G       !!!           |
|           W WW W  AAAAAA  RRRRR   N  N N  II  N  N N  G  GGG   !            |
|           WW  WW  A    A  R   R   N   NN  II  N   NN  G    G                |
|           W    W  A    A  R    R  N    N  II  N    N   GGGG   !!!           |
|                                                                             |
|      For optimal performance we recommend to set                            |
|        NCORE= 4 - approx SQRT( number of cores)                             |
|      NCORE specifies how many cores store one orbital (NPAR=cpu/NCORE).     |
|      This setting can  greatly improve the performance of VASP for DFT.     |
|      The default,   NCORE=1            might be grossly inefficient         |
|      on modern multi-core architectures or massively parallel machines.     |
|      Do your own testing !!!!                                               |
|      Unfortunately you need to use the default for GW and RPA calculations. |
|      (for HF NCORE is supported but not extensively tested yet)             |
|                                                                             |
 ----------------------------------------------------------------------------- 

 POTCAR:    PAW_PBE Ti_sv 26Sep2005               
  local pseudopotential read in
  partial core-charges read in
  partial kinetic energy density read in
  atomic valenz-charges read in
  non local Contribution for L=           0  read in
    real space projection operators read in
  non local Contribution for L=           0  read in
    real space projection operators read in
  non local Contribution for L=           1  read in
    real space projection operators read in
  non local Contribution for L=           1  read in
    real space projection operators read in
  non local Contribution for L=           2  read in
    real space projection operators read in
  non local Contribution for L=           2  read in
    real space projection operators read in
    PAW grid and wavefunctions read in
 
   number of l-projection  operators is LMAX  =           6
   number of lm-projection operators is LMMAX =          18
 
 POTCAR:    PAW_PBE O 08Apr2002                   
  local pseudopotential read in
  partial core-charges read in
  partial kinetic energy density read in
  kinetic energy density of atom read in
  atomic valenz-charges read in
  non local Contribution for L=           0  read in
    real space projection operators read in
  non local Contribution for L=           0  read in
    real space projection operators read in
  non local Contribution for L=           1  read in
    real space projection operators read in
  non local Contribution for L=           1  read in
    real space projection operators read in
    PAW grid and wavefunctions read in
 
   number of l-projection  operators is LMAX  =           4
   number of lm-projection operators is LMMAX =           8
 

 ----------------------------------------------------------------------------- 
|                                                                             |
|  ADVICE TO THIS USER RUNNING 'VASP/VAMP'   (HEAR YOUR MASTER'S VOICE ...):  |
|                                                                             |
|      You have a (more or less) 'large supercell' and for larger cells       |
|      it might be more efficient to use real space projection opertators     |
|      So try LREAL= Auto  in the INCAR   file.                               |
|      Mind:          For very  accurate calculation you might also keep the  |
|      reciprocal projection scheme          (i.e. LREAL=.FALSE.)             |
|                                                                             |
 ----------------------------------------------------------------------------- 

  PAW_PBE Ti_sv 26Sep2005               :
 energy of atom  1       EATOM=-1588.0892
 kinetic energy error for atom=    0.0139 (will be added to EATOM!!)
  PAW_PBE O 08Apr2002                   :
 energy of atom  2       EATOM= -432.3788
 kinetic energy error for atom=    0.1156 (will be added to EATOM!!)
 
  
 Occupation matrix control coded by Prof. Graeme Watson 
 at Trinity College Dublin
  
 Occupation set for the following atoms 
  
 
 POSCAR: generated by phonopy                    
  positions in direct lattice
  velocities in cartesian coordinates
 exchange correlation table for  LEXCH =        8
   RHO(1)=    0.500       N(1)  =     2000
   RHO(2)=  100.500       N(2)  =     4000
 


--------------------------------------------------------------------------------------------------------


 ion  position               nearest neighbor table
   1  1.000  0.000  1.000-  82 1.95  88 1.95  66 1.95  64 1.95 100 2.02  37 2.02
   2  0.333  1.000  0.000-  64 1.95  83 1.95  65 1.95  89 1.95 101 2.02  38 2.02
   3  0.667  1.000  0.000-  66 1.95  84 1.95  65 1.95  90 1.95 102 2.02  39 2.02
   4  0.000  0.333  1.000-  85 1.95  82 1.95  67 1.95  69 1.95  40 2.02 103 2.02
   5  0.333  0.333  0.000-  67 1.95  68 1.95  86 1.95  83 1.95  41 2.02 104 2.02
   6  0.667  0.333  0.000-  69 1.95  68 1.95  87 1.95  84 1.95  42 2.02 105 2.02
   7  1.000  0.667  1.000-  85 1.95  88 1.95  72 1.95  70 1.95 106 2.02  43 2.02
   8  0.333  0.667  0.000-  70 1.95  86 1.95  71 1.95  89 1.95  44 2.02 107 2.02
   9  0.667  0.667  0.000-  72 1.95  87 1.95  71 1.95  90 1.95  45 2.02 108 2.02
  10  0.167  0.167  0.500-  56 1.95  73 1.95  55 1.95  76 1.95  46 2.02  91 2.02
  11  0.500  0.167  0.500-  77 1.95  74 1.95  56 1.95  57 1.95  47 2.02  92 2.02
  12  0.833  0.167  0.500-  57 1.95  75 1.95  55 1.95  78 1.95  48 2.02  93 2.02
  13  0.167  0.500  0.500-  59 1.95  58 1.95  79 1.95  76 1.95  94 2.02  49 2.02
  14  0.500  0.500  0.500-  77 1.95  80 1.95  60 1.95  59 1.95  50 2.02  95 2.02
  15  0.833  0.500  0.500-  60 1.95  58 1.95  81 1.95  78 1.95  96 2.02  51 2.02
  16  0.167  0.833  0.500-  61 1.95  62 1.95  79 1.95  73 1.95  97 2.02  52 2.02
  17  0.500  0.833  0.500-  74 1.95  80 1.95  62 1.95  63 1.95  53 2.02  98 2.02
  18  0.833  0.833  0.500-  61 1.95  63 1.95  81 1.95  75 1.95  99 2.02  54 2.02
  19  0.000  0.167  0.250-  40 1.95  93 1.95  91 1.95  37 1.95  55 2.02  82 2.02
  20  0.333  0.167  0.250-  92 1.95  38 1.95  41 1.95  91 1.95  83 2.02  56 2.02
  21  0.667  0.167  0.250-  92 1.95  39 1.95  42 1.95  93 1.95  84 2.02  57 2.02
  22  0.000  0.500  0.250-  40 1.95  94 1.95  96 1.95  43 1.95  58 2.02  85 2.02
  23  0.333  0.500  0.250-  95 1.95  44 1.95  41 1.95  94 1.95  86 2.02  59 2.02
  24  0.667  0.500  0.250-  95 1.95  45 1.95  42 1.95  96 1.95  87 2.02  60 2.02
  25  1.000  0.833  0.250-  37 1.95  43 1.95  99 1.95  97 1.95  61 2.02  88 2.02
  26  0.333  0.833  0.250-  97 1.95  38 1.95  44 1.95  98 1.95  89 2.02  62 2.02
  27  0.667  0.833  0.250-  99 1.95  39 1.95  45 1.95  98 1.95  90 2.02  63 2.02
  28  0.167  1.000  0.750-  52 1.95 101 1.95 100 1.95  46 1.95  64 2.02  73 2.02
  29  0.500  0.000  0.750-  47 1.95 101 1.95 102 1.95  53 1.95  65 2.02  74 2.02
  30  0.833  1.000  0.750-  54 1.95 102 1.95 100 1.95  48 1.95  66 2.02  75 2.02
  31  0.167  0.333  0.750- 103 1.95  49 1.95  46 1.95 104 1.95  76 2.02  67 2.02
  32  0.500  0.333  0.750- 105 1.95 104 1.95  50 1.95  47 1.95  77 2.02  68 2.02
  33  0.833  0.333  0.750- 103 1.95  51 1.95  48 1.95 105 1.95  78 2.02  69 2.02
  34  0.167  0.667  0.750-  52 1.95 107 1.95 106 1.95  49 1.95  70 2.02  79 2.02
  35  0.500  0.667  0.750-  50 1.95 107 1.95 108 1.95  53 1.95  71 2.02  80 2.02
  36  0.833  0.667  0.750-  54 1.95 108 1.95 106 1.95  51 1.95  72 2.02  81 2.02
  37  1.000  1.000  0.207-  25 1.95  19 1.95   1 2.02
  38  0.333  0.000  0.207-  20 1.95  26 1.95   2 2.02
  39  0.667  0.000  0.207-  21 1.95  27 1.95   3 2.02
  40  0.000  0.333  0.207-  19 1.95  22 1.95   4 2.02
  41  0.333  0.333  0.207-  20 1.95  23 1.95   5 2.02
  42  0.667  0.333  0.207-  21 1.95  24 1.95   6 2.02
  43  1.000  0.667  0.207-  25 1.95  22 1.95   7 2.02
  44  0.333  0.667  0.207-  23 1.95  26 1.95   8 2.02
  45  0.667  0.667  0.207-  24 1.95  27 1.95   9 2.02
  46  0.167  0.167  0.707-  31 1.95  28 1.95  10 2.02
  47  0.500  0.167  0.707-  29 1.95  32 1.95  11 2.02
  48  0.833  0.167  0.707-  33 1.95  30 1.95  12 2.02
  49  0.167  0.500  0.707-  31 1.95  34 1.95  13 2.02
  50  0.500  0.500  0.707-  35 1.95  32 1.95  14 2.02
  51  0.833  0.500  0.707-  33 1.95  36 1.95  15 2.02
  52  0.167  0.833  0.707-  34 1.95  28 1.95  16 2.02
  53  0.500  0.833  0.707-  35 1.95  29 1.95  17 2.02
  54  0.833  0.833  0.707-  36 1.95  30 1.95  18 2.02
  55  1.000  0.167  0.457-  12 1.95  10 1.95  19 2.02
  56  0.333  0.167  0.457-  10 1.95  11 1.95  20 2.02
  57  0.667  0.167  0.457-  12 1.95  11 1.95  21 2.02
  58  0.000  0.500  0.457-  13 1.95  15 1.95  22 2.02
  59  0.333  0.500  0.457-  13 1.95  14 1.95  23 2.02
  60  0.667  0.500  0.457-  15 1.95  14 1.95  24 2.02
  61  1.000  0.833  0.457-  18 1.95  16 1.95  25 2.02
  62  0.333  0.833  0.457-  16 1.95  17 1.95  26 2.02
  63  0.667  0.833  0.457-  18 1.95  17 1.95  27 2.02
  64  0.167  0.000  0.957-   2 1.95   1 1.95  28 2.02
  65  0.500  1.000  0.957-   2 1.95   3 1.95  29 2.02
  66  0.833  0.000  0.957-   3 1.95   1 1.95  30 2.02
  67  0.167  0.333  0.957-   4 1.95   5 1.95  31 2.02
  68  0.500  0.333  0.957-   6 1.95   5 1.95  32 2.02
  69  0.833  0.333  0.957-   4 1.95   6 1.95  33 2.02
  70  0.167  0.667  0.957-   8 1.95   7 1.95  34 2.02
  71  0.500  0.667  0.957-   8 1.95   9 1.95  35 2.02
  72  0.833  0.667  0.957-   9 1.95   7 1.95  36 2.02
  73  0.167  0.000  0.543-  10 1.95  16 1.95  28 2.02
  74  0.500  0.000  0.543-  11 1.95  17 1.95  29 2.02
  75  0.833  0.000  0.543-  12 1.95  18 1.95  30 2.02
  76  0.167  0.333  0.543-  10 1.95  13 1.95  31 2.02
  77  0.500  0.333  0.543-  11 1.95  14 1.95  32 2.02
  78  0.833  0.333  0.543-  12 1.95  15 1.95  33 2.02
  79  0.167  0.667  0.543-  13 1.95  16 1.95  34 2.02
  80  0.500  0.667  0.543-  14 1.95  17 1.95  35 2.02
  81  0.833  0.667  0.543-  15 1.95  18 1.95  36 2.02
  82  0.000  0.167  0.043-   4 1.95   1 1.95  19 2.02
  83  0.333  0.167  0.043-   2 1.95   5 1.95  20 2.02
  84  0.667  0.167  0.043-   3 1.95   6 1.95  21 2.02
  85  0.000  0.500  0.043-   4 1.95   7 1.95  22 2.02
  86  0.333  0.500  0.043-   8 1.95   5 1.95  23 2.02
  87  0.667  0.500  0.043-   9 1.95   6 1.95  24 2.02
  88  1.000  0.833  0.043-   7 1.95   1 1.95  25 2.02
  89  0.333  0.833  0.043-   8 1.95   2 1.95  26 2.02
  90  0.667  0.833  0.043-   9 1.95   3 1.95  27 2.02
  91  0.167  0.167  0.293-  19 1.95  20 1.95  10 2.02
  92  0.500  0.167  0.293-  20 1.95  21 1.95  11 2.02
  93  0.833  0.167  0.293-  19 1.95  21 1.95  12 2.02
  94  0.167  0.500  0.293-  22 1.95  23 1.95  13 2.02
  95  0.500  0.500  0.293-  24 1.95  23 1.95  14 2.02
  96  0.833  0.500  0.293-  22 1.95  24 1.95  15 2.02
  97  0.167  0.833  0.293-  26 1.95  25 1.95  16 2.02
  98  0.500  0.833  0.293-  26 1.95  27 1.95  17 2.02
  99  0.833  0.833  0.293-  27 1.95  25 1.95  18 2.02
 100  1.000  0.000  0.793-  30 1.95  28 1.95   1 2.02
 101  0.333  1.000  0.793-  28 1.95  29 1.95   2 2.02
 102  0.667  1.000  0.793-  30 1.95  29 1.95   3 2.02
 103  0.000  0.333  0.793-  31 1.95  33 1.95   4 2.02
 104  0.333  0.333  0.793-  32 1.95  31 1.95   5 2.02
 105  0.667  0.333  0.793-  32 1.95  33 1.95   6 2.02
 106  0.000  0.667  0.793-  34 1.95  36 1.95   7 2.02
 107  0.333  0.667  0.793-  34 1.95  35 1.95   8 2.02
 108  0.667  0.667  0.793-  36 1.95  35 1.95   9 2.02
 

IMPORTANT INFORMATION: All symmetrisations will be switched off!
NOSYMM: (Re-)initialisation of all symmetry stuff for point group C_1.

 
 
 KPOINTS: TiO2                                    

Automatic generation of k-mesh.
Space group operators:
 irot       det(A)        alpha          n_x          n_y          n_z        tau_x        tau_y        tau_z
    1     1.000000     0.000000     1.000000     0.000000     0.000000     0.000000     0.000000     0.000000
 
 Subroutine IBZKPT returns following result:
 ===========================================
 
 Found      8 irreducible k-points:
 
 Following reciprocal coordinates:
            Coordinates               Weight
  0.000000  0.000000  0.000000      1.000000
  0.500000  0.000000  0.000000      1.000000
  0.000000  0.500000  0.000000      1.000000
  0.500000  0.500000  0.000000      1.000000
  0.000000  0.000000  0.500000      1.000000
  0.500000  0.000000  0.500000      1.000000
  0.000000  0.500000  0.500000      1.000000
  0.500000  0.500000  0.500000      1.000000
 
 Following cartesian coordinates:
            Coordinates               Weight
  0.000000  0.000000  0.000000      1.000000
  0.043828  0.000000  0.000000      1.000000
  0.000000  0.043828  0.000000      1.000000
  0.043828  0.043828  0.000000      1.000000
  0.000000  0.000000  0.051294      1.000000
  0.043828  0.000000  0.051294      1.000000
  0.000000  0.043828  0.051294      1.000000
  0.043828  0.043828  0.051294      1.000000
 
 TETIRR: Found     24 inequivalent tetrahedra from       48


--------------------------------------------------------------------------------------------------------




 Dimension of arrays:
   k-points           NKPTS =      8   k-points in BZ     NKDIM =      8   number of bands    NBANDS=    520
   number of dos      NEDOS =   3000   number of ions     NIONS =    108
   non local maximal  LDIM  =      6   non local SUM 2l+1 LMDIM =     18
   total plane-waves  NPLWV = 409600
   max r-space proj   IRMAX =      1   max aug-charges    IRDMAX=  12733
   dimension x,y,z NGX =    80 NGY =   80 NGZ =   64
   dimension x,y,z NGXF=   160 NGYF=  160 NGZF=  128
   support grid    NGXF=   160 NGYF=  160 NGZF=  128
   ions per type =              36  72
   NGX,Y,Z   is equivalent  to a cutoff of  11.66, 11.66, 10.92 a.u.
   NGXF,Y,Z  is equivalent  to a cutoff of  23.32, 23.32, 21.83 a.u.

 SYSTEM =  TiO2                                    
 POSCAR =  generated by phonopy                    

 Startparameter for this run:
   NWRITE =      1    write-flag & timer
   PREC   = a         normal or accurate (medium, high low for compatibility)
   ISTART =      1    job   : 0-new  1-cont  2-samecut
   ICHARG =      0    charge: 1-file 2-atom 10-const
   ISPIN  =      2    spin polarized calculation?
   LNONCOLLINEAR =      F non collinear calculations
   LSORBIT =      F    spin-orbit coupling
   INIWAV =      1    electr: 0-lowe 1-rand  2-diag
   LASPH  =      F    aspherical Exc in radial PAW
   METAGGA=      F    non-selfconsistent MetaGGA calc.

 Electronic Relaxation 1
   ENCUT  =  400.0 eV  29.40 Ry    5.42 a.u.  18.60 18.60 15.90*2*pi/ulx,y,z
   ENINI  =  400.0     initial cutoff
   ENAUG  =  605.4 eV  augmentation charge cutoff
   NELM   =   2000;   NELMIN=  5; NELMDL=  0     # of ELM steps 
   EDIFF  = 0.1E-04   stopping-criterion for ELM
   LREAL  =      F    real-space projection
   NLSPLINE    = F    spline interpolate recip. space projectors
   LCOMPAT=      F    compatible to vasp.4.4
   GGA_COMPAT  = T    GGA compatible to vasp.4.4-vasp.4.6
   LMAXPAW     = -100 max onsite density
   LMAXMIX     =    4 max onsite mixed and CHGCAR
   VOSKOWN=      0    Vosko Wilk Nusair interpolation
   ROPT   =    0.00000   0.00000
 Ionic relaxation
   EDIFFG = -.1E-01   stopping-criterion for IOM
   NSW    =      0    number of steps for IOM
   NBLOCK =      1;   KBLOCK =      1    inner block; outer block 
   IBRION =     -1    ionic relax: 0-MD 1-quasi-New 2-CG
   NFREE  =      0    steps in history (QN), initial steepest desc. (CG)
   ISIF   =      2    stress and relaxation
   IWAVPR =     10    prediction:  0-non 1-charg 2-wave 3-comb
   ISYM   =      0    0-nonsym 1-usesym 2-fastsym
   LCORR  =      T    Harris-Foulkes like correction to forces

   POTIM  = 0.5000    time-step for ionic-motion
   TEIN   =    0.0    initial temperature
   TEBEG  =    0.0;   TEEND  =   0.0 temperature during run
   SMASS  =  -3.00    Nose mass-parameter (am)
   estimated Nose-frequenzy (Omega)   =  0.10E-29 period in steps =****** mass=  -0.297E-26a.u.
   SCALEE = 1.0000    scale energy and forces
   NPACO  =    256;   APACO  = 16.0  distance and # of slots for P.C.
   PSTRESS=    0.0 pullay stress

  Mass of Ions in am
   POMASS =  47.88 16.00
  Ionic Valenz
   ZVAL   =  12.00  6.00
  Atomic Wigner-Seitz radii
   RWIGS  =  -1.00 -1.00
  virtual crystal weights 
   VCA    =   1.00  1.00
   NELECT =     865.0000    total number of electrons
   NUPDOWN=      -1.0000    fix difference up-down

 DOS related values:
   EMIN   = -15.00;   EMAX   = 15.00  energy-range for DOS
   EFERMI =   0.00
   ISMEAR =    -5;   SIGMA  =   0.20  broadening in eV -4-tet -1-fermi 0-gaus

 Electronic relaxation 2 (details)
   IALGO  =     38    algorithm
   LDIAG  =      T    sub-space diagonalisation (order eigenvalues)
   LSUBROT=      F    optimize rotation matrix (better conditioning)
   TURBO    =      0    0=normal 1=particle mesh
   IRESTART =      0    0=no restart 2=restart with 2 vectors
   NREBOOT  =      0    no. of reboots
   NMIN     =      0    reboot dimension
   EREF     =   0.00    reference energy to select bands
   IMIX   =      4    mixing-type and parameters
     AMIX     =   0.40;   BMIX     =  1.00
     AMIX_MAG =   1.60;   BMIX_MAG =  1.00
     AMIN     =   0.10
     WC   =   100.;   INIMIX=   1;  MIXPRE=   1;  MAXMIX= -45

 Intra band minimization:
   WEIMIN = 0.0000     energy-eigenvalue tresh-hold
   EBREAK =  0.48E-08  absolut break condition
   DEPER  =   0.30     relativ break condition  

   TIME   =   0.40     timestep for ELM

  volume/ion in A,a.u.               =      11.75        79.27
  Fermi-wavevector in a.u.,A,eV,Ry     =   1.440906  2.722918 28.248568  2.076211
  Thomas-Fermi vector in A             =   2.559598
 
 Write flags
   LWAVE        =      T    write WAVECAR
   LDOWNSAMPLE  =      F    k-point downsampling of WAVECAR
   LCHARG       =      T    write CHGCAR
   LVTOT        =      F    write LOCPOT, total local potential
   LVHAR        =      F    write LOCPOT, Hartree potential only
   LELF         =      F    write electronic localiz. function (ELF)
   LORBIT       =     11    0 simple, 1 ext, 2 COOP (PROOUT), +10 PAW based schemes


 Dipole corrections
   LMONO  =      F    monopole corrections only (constant potential shift)
   LDIPOL =      F    correct potential (dipole corrections)
   IDIPOL =      0    1-x, 2-y, 3-z, 4-all directions 
   EPSILON=  1.0000000 bulk dielectric constant

 LDA+U is selected, type is set to LDAUTYPE =  2
   angular momentum for each species LDAUL =     2    2
   U (eV)           for each species LDAUU =   4.2  0.0
   J (eV)           for each species LDAUJ =   0.0  0.0
 Exchange correlation treatment:
   GGA     =    --    GGA type
   LEXCH   =     8    internal setting for exchange type
   VOSKOWN=      0    Vosko Wilk Nusair interpolation
   LHFCALC =     F    Hartree Fock is set to
   LHFONE  =     F    Hartree Fock one center treatment
   AEXX    =    0.0000 exact exchange contribution

 Linear response parameters
   LEPSILON=     F    determine dielectric tensor
   LRPA    =     F    only Hartree local field effects (RPA)
   LNABLA  =     F    use nabla operator in PAW spheres
   LVEL    =     F    velocity operator in full k-point grid
   LINTERFAST=   F  fast interpolation
   KINTER  =     0    interpolate to denser k-point grid
   CSHIFT  =0.1000    complex shift for real part using Kramers Kronig
   OMEGAMAX=  -1.0    maximum frequency
   DEG_THRESHOLD= 0.2000000E-02 threshold for treating states as degnerate
   RTIME   =   -0.100 relaxation time in fs
  (WPLASMAI=    0.000 imaginary part of plasma frequency in eV, 0.658/RTIME)
   DFIELD  = 0.0000000 0.0000000 0.0000000 field for delta impulse in time
 
 Orbital magnetization related:
   ORBITALMAG=     F  switch on orbital magnetization
   LCHIMAG   =     F  perturbation theory with respect to B field
   DQ        =  0.001000  dq finite difference perturbation B field
   LLRAUG    =     F  two centre corrections for induced B field



--------------------------------------------------------------------------------------------------------


 Static calculation
 charge density and potential will be updated during run
 spin polarized calculation
 Variant of blocked Davidson
 Davidson routine will perform the subspace rotation
 perform sub-space diagonalisation
    after iterative eigenvector-optimisation
 modified Broyden-mixing scheme, WC =      100.0
 initial mixing is a Kerker type mixing with AMIX =  0.4000 and BMIX =      1.0000
 Hartree-type preconditioning will be used
 using additional bands           87
 reciprocal scheme for non local part
 use partial core corrections
 calculate Harris-corrections to forces 
   (improved forces if not selfconsistent)
 use gradient corrections 
 use of overlap-Matrix (Vanderbilt PP)
 Fermi weights with tetrahedron method with Bloechl corrections


--------------------------------------------------------------------------------------------------------


  energy-cutoff  :      400.00
  volume of cell :     1268.63
      direct lattice vectors                 reciprocal lattice vectors
    11.408128739  0.000000000  0.000000000     0.087656795  0.000000000  0.000000000
     0.000000000 11.408128739  0.000000000     0.000000000  0.087656795  0.000000000
     0.000000000  0.000000000  9.747752190     0.000000000  0.000000000  0.102587754

  length of vectors
    11.408128739 11.408128739  9.747752190     0.087656795  0.087656795  0.102587754


 
 old parameters found on file WAVECAR:
  energy-cutoff  :      400.00
  volume of cell :     1268.63
      direct lattice vectors                 reciprocal lattice vectors
    11.408128739  0.000000000  0.000000000     0.087656795  0.000000000  0.000000000
     0.000000000 11.408128739  0.000000000     0.000000000  0.087656795  0.000000000
     0.000000000  0.000000000  9.747752190     0.000000000  0.000000000  0.102587754

  length of vectors

 
 k-points in units of 2pi/SCALE and weight: TiO2                                    
   0.00000000  0.00000000  0.00000000       0.125
   0.04382840  0.00000000  0.00000000       0.125
   0.00000000  0.04382840  0.00000000       0.125
   0.04382840  0.04382840  0.00000000       0.125
   0.00000000  0.00000000  0.05129388       0.125
   0.04382840  0.00000000  0.05129388       0.125
   0.00000000  0.04382840  0.05129388       0.125
   0.04382840  0.04382840  0.05129388       0.125
 
 k-points in reciprocal lattice and weights: TiO2                                    
   0.00000000  0.00000000  0.00000000       0.125
   0.50000000  0.00000000  0.00000000       0.125
   0.00000000  0.50000000  0.00000000       0.125
   0.50000000  0.50000000  0.00000000       0.125
   0.00000000  0.00000000  0.50000000       0.125
   0.50000000  0.00000000  0.50000000       0.125
   0.00000000  0.50000000  0.50000000       0.125
   0.50000000  0.50000000  0.50000000       0.125
 
 position of ions in fractional coordinates (direct lattice) 
   0.99999999  0.00002890  0.99992727
   0.33333790  0.99999679  0.00000005
   0.66666210  0.99999680  0.00000005
   0.00000003  0.33333450  0.99999993
   0.33330483  0.33333364  0.00007262
   0.66669515  0.33333365  0.00007260
   0.99999998  0.66663746  0.99992747
   0.33333692  0.66667041  0.00000012
   0.66666309  0.66667040  0.00000015
   0.16665543  0.16667761  0.50000012
   0.50000000  0.16672089  0.50006205
   0.83334457  0.16667760  0.50000011
   0.16665455  0.49998897  0.50000030
   0.50000000  0.49994248  0.50006262
   0.83334545  0.49998898  0.50000030
   0.16661007  0.83333306  0.49993728
   0.49999998  0.83333256  0.49999954
   0.83338993  0.83333305  0.49993726
   0.00000001  0.16666418  0.24997389
   0.33335214  0.16665719  0.25001015
   0.66664786  0.16665722  0.25001014
   0.00000003  0.50000165  0.24997363
   0.33335306  0.50001009  0.25000995
   0.66664693  0.50001009  0.25000997
   0.99999997  0.83333439  0.24982249
   0.33333168  0.83333372  0.25000842
   0.66666832  0.83333372  0.25000840
   0.16667544  0.99998115  0.74998955
   0.49999999  0.00000099  0.74999097
   0.83332456  0.99998114  0.74998952
   0.16666820  0.33333351  0.75002651
   0.50000003  0.33333357  0.75017740
   0.83333179  0.33333351  0.75002648
   0.16667622  0.66668545  0.74999015
   0.49999999  0.66666345  0.74999196
   0.83332380  0.66668547  0.74999016
   0.99999997  0.99998995  0.20667640
   0.33336492  0.00000065  0.20680021
   0.66663510  0.00000064  0.20680022
   0.00000002  0.33333215  0.20677424
   0.33326955  0.33333297  0.20680582
   0.66673044  0.33333297  0.20680583
   1.00000000  0.66667827  0.20667535
   0.33336644  0.66666722  0.20679723
   0.66663356  0.66666724  0.20679723
   0.16670969  0.16666314  0.70679142
   0.50000001  0.16666569  0.70683582
   0.83329030  0.16666317  0.70679141
   0.16671146  0.50000419  0.70679457
   0.50000001  0.50000076  0.70683817
   0.83328854  0.50000417  0.70679456
   0.16662183  0.83333274  0.70673571
   0.49999999  0.83333152  0.70677830
   0.83337817  0.83333274  0.70673569
   0.99999999  0.16676153  0.45672711
   0.33332341  0.16679711  0.45680102
   0.66667660  0.16679711  0.45680102
   0.00000001  0.49991277  0.45672618
   0.33332279  0.49987692  0.45680184
   0.66667720  0.49987694  0.45680183
   1.00000000  0.83332630  0.45656143
   0.33329988  0.83332575  0.45683972
   0.66670010  0.83332574  0.45683973
   0.16669859  0.00001724  0.95676479
   0.49999999  0.99999071  0.95675221
   0.83330141  0.00001725  0.95676476
   0.16664210  0.33332801  0.95682179
   0.50000001  0.33332618  0.95695115
   0.83335792  0.33332802  0.95682181
   0.16669795  0.66665515  0.95676434
   0.50000000  0.66668350  0.95675359
   0.83330205  0.66665513  0.95676435
   0.16654864  0.00000897  0.54319606
   0.50000000  0.00003129  0.54315718
   0.83345136  0.00000899  0.54319603
   0.16658407  0.33333283  0.54327613
   0.50000001  0.33333143  0.54343965
   0.83341593  0.33333283  0.54327613
   0.16654575  0.66665802  0.54319963
   0.50000000  0.66663416  0.54315998
   0.83345426  0.66665800  0.54319962
   0.00000001  0.16669325  0.04317759
   0.33331056  0.16663687  0.04323606
   0.66668943  0.16663687  0.04323606
   0.00000002  0.49997508  0.04317616
   0.33330916  0.50003084  0.04323310
   0.66669082  0.50003085  0.04323311
   0.99999998  0.83333228  0.04305060
   0.33333750  0.83333304  0.04324951
   0.66666251  0.83333303  0.04324952
   0.16667136  0.16663476  0.29320865
   0.49999999  0.16672389  0.29326103
   0.83332865  0.16663480  0.29320865
   0.16667206  0.50003743  0.29320772
   0.50000001  0.49994959  0.29326191
   0.83332794  0.50003742  0.29320769
   0.16666898  0.83332823  0.29316382
   0.49999998  0.83332655  0.29321987
   0.83333102  0.83332820  0.29316382
   0.99999999  0.00005810  0.79319203
   0.33333181  0.99996184  0.79320152
   0.66666820  0.99996182  0.79320150
   0.00000001  0.33332643  0.79322398
   0.33334298  0.33332767  0.79332598
   0.66665703  0.33332768  0.79332599
   0.00000001  0.66661553  0.79319190
   0.33333239  0.66671082  0.79320283
   0.66666760  0.66671083  0.79320283
 
 position of ions in cartesian coordinates  (Angst):
  11.40812865  0.00032967  9.74704319
   3.80276166 11.40809208  0.00000046
   7.60536707 11.40809222  0.00000046
   0.00000035  3.80272284  9.74775155
   3.80238444  3.80271308  0.00070787
   7.60574410  3.80271315  0.00070768
  11.40812853  7.60508592  9.74704523
   3.80275055  7.60546185  0.00000113
   7.60537835  7.60546180  0.00000147
   1.90122657  1.90147963  4.87387728
   5.70406435  1.90197335  4.87448093
   9.50690216  1.90147951  4.87387721
   1.90121660  5.70393853  4.87387906
   5.70406441  5.70340822  4.87448650
   9.50691219  5.70393867  4.87387901
   1.90070916  9.50677078  4.87326470
   5.70406419  9.50676518  4.87387165
   9.50741956  9.50677076  4.87326447
   0.00000006  1.90132648  2.43668353
   3.80292418  1.90124672  2.43703694
   7.60520455  1.90124704  2.43703690
   0.00000029  5.70408315  2.43668096
   3.80293461  5.70417950  2.43703508
   7.60519403  5.70417950  2.43703524
  11.40812843  9.50678597  2.43520770
   3.80269069  9.50677841  2.43702016
   7.60543802  9.50677836  2.43701991
   1.90145484 11.40791372  7.31071224
   5.70406425  0.00001132  7.31072608
   9.50667386 11.40791354  7.31071196
   1.90137225  3.80271156  7.31107260
   5.70406477  3.80271231  7.31254341
   9.50675634  3.80271156  7.31107225
   1.90146376  7.60563342  7.31071812
   5.70406425  7.60538242  7.31073578
   9.50666520  7.60563366  7.31071820
  11.40812842 11.40801412  2.01463033
   3.80306993  0.00000742  2.01583724
   7.60505906  0.00000733  2.01583726
   0.00000024  3.80269610  2.01558401
   3.80198199  3.80270541  2.01589185
   7.60614666  3.80270542  2.01589198
  11.40812873  7.60555155  2.01462013
   3.80308726  7.60542544  2.01580816
   7.60504142  7.60542575  2.01580815
   1.90184562  1.90131458  6.88962765
   5.70406453  1.90134369  6.89006046
   9.50628298  1.90131495  6.88962750
   1.90186585  5.70411220  6.88965833
   5.70406445  5.70407304  6.89008328
   9.50626294  5.70411192  6.88965820
   1.90084333  9.50676719  6.88908459
   5.70406430  9.50675331  6.88949977
   9.50728545  9.50676714  6.88908440
  11.40812863  1.90243703  4.45206267
   3.80259638  1.90284287  4.45278318
   7.60553245  1.90284289  4.45278317
   0.00000017  5.70306922  4.45205362
   3.80258930  5.70266030  4.45279111
   7.60553936  5.70266048  4.45279102
  11.40812869  9.50669366  4.45044767
   3.80232795  9.50668743  4.45316041
   7.60580058  9.50668731  4.45316047
   1.90171895  0.00019665  9.32630603
   5.70406425 11.40802280  9.32618348
   9.50640980  0.00019685  9.32630576
   1.90107448  3.80264880  9.32686166
   5.70406443  3.80262793  9.32812267
   9.50705440  3.80264892  9.32686187
   1.90171170  7.60528778  9.32630169
   5.70406440  7.60561123  9.32619691
   9.50641704  7.60528752  9.32630176
   1.90000828  0.00010232  5.29494062
   5.70406438  0.00035698  5.29456157
   9.50812038  0.00010256  5.29494026
   1.90041249  3.80270382  5.29572105
   5.70406451  3.80268790  5.29731501
   9.50771620  3.80270379  5.29572106
   1.89997533  7.60532052  5.29497542
   5.70406431  7.60504837  5.29458889
   9.50815347  7.60532033  5.29497528
   0.00000006  1.90165804  0.42088449
   3.80244983  1.90101489  0.42145440
   7.60567887  1.90101492  0.42145444
   0.00000022  5.70378004  0.42087046
   3.80243379  5.70441614  0.42142555
   7.60569476  5.70441634  0.42142561
  11.40812851  9.50676196  0.41964659
   3.80275712  9.50677061  0.42158549
   7.60537169  9.50677054  0.42158557
   1.90140832  1.90099082  2.85812526
   5.70406425  1.90200760  2.85863581
   9.50672056  1.90099126  2.85812522
   1.90141631  5.70449135  2.85811616
   5.70406447  5.70348927  2.85864446
   9.50671245  5.70449123  2.85811595
   1.90138116  9.50671569  2.85768829
   5.70406417  9.50669659  2.85823466
   9.50674750  9.50671539  2.85768826
  11.40812857  0.00066280  7.73183931
   3.80269216 11.40769339  7.73193187
   7.60543663 11.40769315  7.73193170
   0.00000009  3.80263080  7.73215077
   3.80281965  3.80264493  7.73314503
   7.60530922  3.80264510  7.73314520
   0.00000014  7.60483582  7.73183810
   3.80269882  7.60592285  7.73194463
   7.60542982  7.60592296  7.73194461
 


--------------------------------------------------------------------------------------------------------


 k-point  1 :   0.0000 0.0000 0.0000  plane waves:   23091
 k-point  2 :   0.5000 0.0000 0.0000  plane waves:   23010
 k-point  3 :   0.0000 0.5000 0.0000  plane waves:   23010
 k-point  4 :   0.5000 0.5000 0.0000  plane waves:   22996
 k-point  5 :   0.0000 0.0000 0.5000  plane waves:   23024
 k-point  6 :   0.5000 0.0000 0.5000  plane waves:   23052
 k-point  7 :   0.0000 0.5000 0.5000  plane waves:   23052
 k-point  8 :   0.5000 0.5000 0.5000  plane waves:   23032

 maximum and minimum number of plane-waves per node :      1074     1020

 maximum number of plane-waves:     23091
 maximum index in each direction: 
   IXMAX=   18   IYMAX=   18   IZMAX=   15
   IXMIN=  -19   IYMIN=  -19   IZMIN=  -16


 parallel 3D FFT for wavefunctions:
    minimum data exchange during FFTs selected (reduces bandwidth)
 parallel 3D FFT for charge:
    minimum data exchange during FFTs selected (reduces bandwidth)


 total amount of memory used by VASP MPI-rank0   121301. kBytes
=======================================================================

   base      :      30000. kBytes
   nonl-proj :       4314. kBytes
   fftplans  :       3336. kBytes
   grid      :       8284. kBytes
   one-center:        155. kBytes
   wavefun   :      75212. kBytes
 
     INWAV:  cpu time   12.5749: real time   12.5767
 Broyden mixing: mesh for mixing (old mesh)
   NGX = 37   NGY = 37   NGZ = 31
  (NGX  =160   NGY  =160   NGZ  =128)
  gives a total of  42439 points

 charge density for first step will be calculated from the start-wavefunctions


--------------------------------------------------------------------------------------------------------


 Maximum index for augmentation-charges          626 (set IRDMAX)


--------------------------------------------------------------------------------------------------------


 initial charge from wavefunction
 First call to EWALD:  gamma=   0.164
 Maximum number of real-space cells 3x 3x 3
 Maximum number of reciprocal cells 3x 3x 3

    FEWALD:  cpu time    0.0033: real time    0.0033


--------------------------------------- Iteration      1(   1)  ---------------------------------------


    POTLOK:  cpu time    0.1571: real time    0.1574
    SETDIJ:  cpu time    0.0234: real time    0.0234
atom =   1  type =  1  l = 2
 
 onsite density matrix
 
spin component  1
 
  0.1180  0.0000 -0.0000 -0.0003  0.0000
  0.0000  0.0985 -0.0000  0.0000 -0.0000
 -0.0000 -0.0000  0.2406 -0.0000 -0.0001
 -0.0003  0.0000 -0.0000  0.0985  0.0000
  0.0000 -0.0000 -0.0001  0.0000  0.2480
 
spin component  2
 
  0.1137  0.0000 -0.0000 -0.0000  0.0001
  0.0000  0.0983 -0.0000 -0.0000 -0.0001
 -0.0000 -0.0000  0.2404 -0.0000 -0.0001
 -0.0000 -0.0000 -0.0000  0.0985 -0.0000
  0.0001 -0.0001 -0.0001 -0.0000  0.2478
 
 occupancies and eigenvectors
 
  o =  0.0983  v =  0.0000  0.0000  0.0000  0.0000  0.0000 -0.0006  0.9908  0.0003  0.1351  0.0006      0.0000  0.0000  0.0000  0.0000  0.0000  0.0000  0.0000  0.0000  0.0000  0.0000
  o =  0.0985  v =  0.0000  0.0000  0.0000  0.0000  0.0000 -0.0014  0.1351  0.0000 -0.9908 -0.0001      0.0000  0.0000  0.0000  0.0000  0.0000  0.0000  0.0000  0.0000  0.0000  0.0000
  o =  0.0985  v =  0.0069 -0.9535 -0.0002  0.3013 -0.0001  0.0000  0.0000  0.0000  0.0000  0.0000      0.0000  0.0000  0.0000  0.0000  0.0000  0.0000  0.0000  0.0000  0.0000  0.0000
  o =  0.0985  v = -0.0144 -0.3014 -0.0001 -0.9534  0.0000  0.0000  0.0000  0.0000  0.0000  0.0000      0.0000  0.0000  0.0000  0.0000  0.0000  0.0000  0.0000  0.0000  0.0000  0.0000
  o =  0.1137  v =  0.0000  0.0000  0.0000  0.0000  0.0000  1.0000  0.0008  0.0000 -0.0013 -0.0005      0.0000  0.0000  0.0000  0.0000  0.0000  0.0000  0.0000  0.0000  0.0000  0.0000
  o =  0.1180  v =  0.9999  0.0023  0.0002 -0.0158 -0.0003  0.0000  0.0000  0.0000  0.0000  0.0000      0.0000  0.0000  0.0000  0.0000  0.0000  0.0000  0.0000  0.0000  0.0000  0.0000
  o =  0.2404  v =  0.0000  0.0000  0.0000  0.0000  0.0000  0.0000 -0.0003  0.9999 -0.0000  0.0107      0.0000  0.0000  0.0000  0.0000  0.0000  0.0000  0.0000  0.0000  0.0000  0.0000
  o =  0.2406  v = -0.0002 -0.0002  1.0000 -0.0000  0.0086  0.0000  0.0000  0.0000  0.0000  0.0000      0.0000  0.0000  0.0000  0.0000  0.0000  0.0000  0.0000  0.0000  0.0000  0.0000
  o =  0.2478  v =  0.0000  0.0000  0.0000  0.0000  0.0000 -0.0005  0.0006  0.0107  0.0002 -0.9999      0.0000  0.0000  0.0000  0.0000  0.0000  0.0000  0.0000  0.0000  0.0000  0.0000
  o =  0.2480  v = -0.0003  0.0000  0.0086 -0.0001 -1.0000  0.0000  0.0000  0.0000  0.0000  0.0000      0.0000  0.0000  0.0000  0.0000  0.0000  0.0000  0.0000  0.0000  0.0000  0.0000
atom =   2  type =  1  l = 2
 
 onsite density matrix
 
spin component  1
 
  0.1180 -0.0001 -0.0001 -0.0002 -0.0000
 -0.0001  0.0986 -0.0000 -0.0000  0.0001
 -0.0001 -0.0000  0.2404  0.0000 -0.0000
 -0.0002 -0.0000  0.0000  0.0984 -0.0001
 -0.0000  0.0001 -0.0000 -0.0001  0.2481
 
spin component  2
 
  0.1133  0.0001 -0.0000 -0.0000  0.0000
  0.0001  0.0985 -0.0000 -0.0000 -0.0000
 -0.0000 -0.0000  0.2402  0.0000 -0.0000
 -0.0000 -0.0000  0.0000  0.0983 -0.0000
  0.0000 -0.0000 -0.0000 -0.0000  0.2479
 
 occupancies and eigenvectors
 
  o =  0.0983  v =  0.0000  0.0000  0.0000  0.0000  0.0000  0.0018  0.0223 -0.0001  0.9998  0.0002      0.0000  0.0000  0.0000  0.0000  0.0000  0.0000  0.0000  0.0000  0.0000  0.0000
  o =  0.0984  v = -0.0140 -0.2779  0.0000 -0.9605 -0.0004  0.0000  0.0000  0.0000  0.0000  0.0000      0.0000  0.0000  0.0000  0.0000  0.0000  0.0000  0.0000  0.0000  0.0000  0.0000
  o =  0.0985  v =  0.0000  0.0000  0.0000  0.0000  0.0000  0.0058 -0.9997 -0.0000  0.0222 -0.0001      0.0000  0.0000  0.0000  0.0000  0.0000  0.0000  0.0000  0.0000  0.0000  0.0000
  o =  0.0986  v =  0.0031  0.9606  0.0002 -0.2779 -0.0006  0.0000  0.0000  0.0000  0.0000  0.0000      0.0000  0.0000  0.0000  0.0000  0.0000  0.0000  0.0000  0.0000  0.0000  0.0000
  o =  0.1133  v =  0.0000  0.0000  0.0000  0.0000  0.0000  1.0000  0.0058  0.0002 -0.0020 -0.0000      0.0000  0.0000  0.0000  0.0000  0.0000  0.0000  0.0000  0.0000  0.0000  0.0000
  o =  0.1180  v =  0.9999 -0.0068  0.0008 -0.0126  0.0002  0.0000  0.0000  0.0000  0.0000  0.0000      0.0000  0.0000  0.0000  0.0000  0.0000  0.0000  0.0000  0.0000  0.0000  0.0000
  o =  0.2402  v =  0.0000  0.0000  0.0000  0.0000  0.0000 -0.0002 -0.0000  1.0000  0.0001  0.0011      0.0000  0.0000  0.0000  0.0000  0.0000  0.0000  0.0000  0.0000  0.0000  0.0000
  o =  0.2404  v = -0.0008 -0.0002  1.0000  0.0001  0.0004  0.0000  0.0000  0.0000  0.0000  0.0000      0.0000  0.0000  0.0000  0.0000  0.0000  0.0000  0.0000  0.0000  0.0000  0.0000
  o =  0.2479  v =  0.0000  0.0000  0.0000  0.0000  0.0000  0.0000 -0.0001 -0.0011 -0.0002  1.0000      0.0000  0.0000  0.0000  0.0000  0.0000  0.0000  0.0000  0.0000  0.0000  0.0000
  o =  0.2481  v =  0.0002 -0.0004  0.0004  0.0006 -1.0000  0.0000  0.0000  0.0000  0.0000  0.0000      0.0000  0.0000  0.0000  0.0000  0.0000  0.0000  0.0000  0.0000  0.0000  0.0000
atom =   3  type =  1  l = 2
 
 onsite density matrix
 
spin component  1
 
  0.1184  0.0001  0.0001 -0.0003  0.0000
  0.0001  0.0986 -0.0000  0.0001  0.0000
  0.0001 -0.0000  0.2404 -0.0000 -0.0000
 -0.0003  0.0001 -0.0000  0.0984  0.0001
  0.0000  0.0000 -0.0000  0.0001  0.2481
 
spin component  2
 
  0.1130  0.0000  0.0000 -0.0001 -0.0000
  0.0000  0.0985  0.0000  0.0000 -0.0000
  0.0000  0.0000  0.2402 -0.0000 -0.0000
 -0.0001  0.0000 -0.0000  0.0984  0.0000
 -0.0000 -0.0000 -0.0000  0.0000  0.2478
 
 occupancies and eigenvectors
 
  o =  0.0983  v =  0.0000  0.0000  0.0000  0.0000  0.0000  0.0075 -0.2981  0.0002  0.9545 -0.0002      0.0000  0.0000  0.0000  0.0000  0.0000  0.0000  0.0000  0.0000  0.0000  0.0000
  o =  0.0983  v =  0.0185 -0.4601  0.0000  0.8877 -0.0003  0.0000  0.0000  0.0000  0.0000  0.0000      0.0000  0.0000  0.0000  0.0000  0.0000  0.0000  0.0000  0.0000  0.0000  0.0000
  o =  0.0985  v =  0.0000  0.0000  0.0000  0.0000  0.0000  0.0011  0.9545  0.0000  0.2981  0.0002      0.0000  0.0000  0.0000  0.0000  0.0000  0.0000  0.0000  0.0000  0.0000  0.0000
  o =  0.0986  v = -0.0017 -0.8879 -0.0001 -0.4601  0.0005  0.0000  0.0000  0.0000  0.0000  0.0000      0.0000  0.0000  0.0000  0.0000  0.0000  0.0000  0.0000  0.0000  0.0000  0.0000
  o =  0.1130  v =  0.0000  0.0000  0.0000  0.0000  0.0000  1.0000  0.0012 -0.0002 -0.0075  0.0001      0.0000  0.0000  0.0000  0.0000  0.0000  0.0000  0.0000  0.0000  0.0000  0.0000
  o =  0.1184  v =  0.9998  0.0070 -0.0007 -0.0172 -0.0003  0.0000  0.0000  0.0000  0.0000  0.0000      0.0000  0.0000  0.0000  0.0000  0.0000  0.0000  0.0000  0.0000  0.0000  0.0000
  o =  0.2402  v =  0.0000  0.0000  0.0000  0.0000  0.0000 -0.0002 -0.0000 -1.0000  0.0002 -0.0003      0.0000  0.0000  0.0000  0.0000  0.0000  0.0000  0.0000  0.0000  0.0000  0.0000
  o =  0.2404  v = -0.0007  0.0001 -1.0000  0.0001 -0.0001  0.0000  0.0000  0.0000  0.0000  0.0000      0.0000  0.0000  0.0000  0.0000  0.0000  0.0000  0.0000  0.0000  0.0000  0.0000
  o =  0.2478  v =  0.0000  0.0000  0.0000  0.0000  0.0000  0.0001  0.0002  0.0003 -0.0001 -1.0000      0.0000  0.0000  0.0000  0.0000  0.0000  0.0000  0.0000  0.0000  0.0000  0.0000
  o =  0.2481  v =  0.0003  0.0003 -0.0001  0.0005  1.0000  0.0000  0.0000  0.0000  0.0000  0.0000      0.0000  0.0000  0.0000  0.0000  0.0000  0.0000  0.0000  0.0000  0.0000  0.0000
atom =   4  type =  1  l = 2
 
 onsite density matrix
 
spin component  1
 
  0.1164  0.0001  0.0000  0.0000 -0.0000
  0.0001  0.0986  0.0000  0.0000  0.0000
  0.0000  0.0000  0.2405 -0.0000  0.0000
  0.0000  0.0000 -0.0000  0.0986  0.0000
 -0.0000  0.0000  0.0000  0.0000  0.2484
 
spin component  2
 
  0.1140 -0.0000  0.0000  0.0000 -0.0000
 -0.0000  0.0983 -0.0000 -0.0001 -0.0000
  0.0000 -0.0000  0.2404 -0.0000  0.0000
  0.0000 -0.0001 -0.0000  0.0985 -0.0000
 -0.0000 -0.0000  0.0000 -0.0000  0.2484
 
 occupancies and eigenvectors
 
  o =  0.0983  v =  0.0000  0.0000  0.0000  0.0000  0.0000  0.0003  0.9609  0.0000  0.2769  0.0000      0.0000  0.0000  0.0000  0.0000  0.0000  0.0000  0.0000  0.0000  0.0000  0.0000
  o =  0.0985  v =  0.0000  0.0000  0.0000  0.0000  0.0000 -0.0014 -0.2769 -0.0000  0.9609 -0.0000      0.0000  0.0000  0.0000  0.0000  0.0000  0.0000  0.0000  0.0000  0.0000  0.0000
  o =  0.0986  v = -0.0037  0.9882 -0.0000 -0.1534 -0.0000  0.0000  0.0000  0.0000  0.0000  0.0000      0.0000  0.0000  0.0000  0.0000  0.0000  0.0000  0.0000  0.0000  0.0000  0.0000
  o =  0.0986  v =  0.0020 -0.1534 -0.0000 -0.9882  0.0000  0.0000  0.0000  0.0000  0.0000  0.0000      0.0000  0.0000  0.0000  0.0000  0.0000  0.0000  0.0000  0.0000  0.0000  0.0000
  o =  0.1140  v =  0.0000  0.0000  0.0000  0.0000  0.0000  1.0000 -0.0007 -0.0000  0.0013  0.0000      0.0000  0.0000  0.0000  0.0000  0.0000  0.0000  0.0000  0.0000  0.0000  0.0000
  o =  0.1164  v = -1.0000 -0.0040  0.0000 -0.0014 -0.0000  0.0000  0.0000  0.0000  0.0000  0.0000      0.0000  0.0000  0.0000  0.0000  0.0000  0.0000  0.0000  0.0000  0.0000  0.0000
  o =  0.2404  v =  0.0000  0.0000  0.0000  0.0000  0.0000  0.0000 -0.0000  1.0000 -0.0000 -0.0005      0.0000  0.0000  0.0000  0.0000  0.0000  0.0000  0.0000  0.0000  0.0000  0.0000
  o =  0.2405  v = -0.0000 -0.0000 -1.0000  0.0000  0.0005  0.0000  0.0000  0.0000  0.0000  0.0000      0.0000  0.0000  0.0000  0.0000  0.0000  0.0000  0.0000  0.0000  0.0000  0.0000
  o =  0.2484  v =  0.0000  0.0000  0.0000  0.0000  0.0000 -0.0000 -0.0000  0.0005 -0.0000  1.0000      0.0000  0.0000  0.0000  0.0000  0.0000  0.0000  0.0000  0.0000  0.0000  0.0000
  o =  0.2484  v =  0.0000 -0.0000 -0.0005 -0.0000 -1.0000  0.0000  0.0000  0.0000  0.0000  0.0000      0.0000  0.0000  0.0000  0.0000  0.0000  0.0000  0.0000  0.0000  0.0000  0.0000
atom =   5  type =  1  l = 2
 
 onsite density matrix
 
spin component  1
 
  0.1170 -0.0002 -0.0000 -0.0000 -0.0000
 -0.0002  0.0985  0.0000  0.0000  0.0000
 -0.0000  0.0000  0.2406 -0.0000  0.0001
 -0.0000  0.0000 -0.0000  0.0985  0.0000
 -0.0000  0.0000  0.0001  0.0000  0.2480
 
spin component  2
 
  0.1134  0.0001 -0.0000  0.0001 -0.0001
  0.0001  0.0985 -0.0000 -0.0000  0.0000
 -0.0000 -0.0000  0.2405 -0.0000  0.0001
  0.0001 -0.0000 -0.0000  0.0984  0.0000
 -0.0001  0.0000  0.0001  0.0000  0.2479
 
 occupancies and eigenvectors
 
  o =  0.0984  v =  0.0000  0.0000  0.0000  0.0000  0.0000 -0.0051  0.1453  0.0002  0.9894 -0.0003      0.0000  0.0000  0.0000  0.0000  0.0000  0.0000  0.0000  0.0000  0.0000  0.0000
  o =  0.0985  v =  0.0000  0.0000  0.0000  0.0000  0.0000 -0.0075  0.9894 -0.0000 -0.1453 -0.0000      0.0000  0.0000  0.0000  0.0000  0.0000  0.0000  0.0000  0.0000  0.0000  0.0000
  o =  0.0985  v =  0.0099  0.8688 -0.0001 -0.4951  0.0001  0.0000  0.0000  0.0000  0.0000  0.0000      0.0000  0.0000  0.0000  0.0000  0.0000  0.0000  0.0000  0.0000  0.0000  0.0000
  o =  0.0985  v =  0.0079  0.4950  0.0001  0.8689 -0.0002  0.0000  0.0000  0.0000  0.0000  0.0000      0.0000  0.0000  0.0000  0.0000  0.0000  0.0000  0.0000  0.0000  0.0000  0.0000
  o =  0.1134  v =  0.0000  0.0000  0.0000  0.0000  0.0000 -1.0000 -0.0082 -0.0000 -0.0040 -0.0005      0.0000  0.0000  0.0000  0.0000  0.0000  0.0000  0.0000  0.0000  0.0000  0.0000
  o =  0.1170  v =  0.9999 -0.0125  0.0001 -0.0019  0.0002  0.0000  0.0000  0.0000  0.0000  0.0000      0.0000  0.0000  0.0000  0.0000  0.0000  0.0000  0.0000  0.0000  0.0000  0.0000
  o =  0.2405  v =  0.0000  0.0000  0.0000  0.0000  0.0000 -0.0000 -0.0000  0.9999 -0.0002 -0.0111      0.0000  0.0000  0.0000  0.0000  0.0000  0.0000  0.0000  0.0000  0.0000  0.0000
  o =  0.2406  v = -0.0001  0.0001  0.9999 -0.0001 -0.0106  0.0000  0.0000  0.0000  0.0000  0.0000      0.0000  0.0000  0.0000  0.0000  0.0000  0.0000  0.0000  0.0000  0.0000  0.0000
  o =  0.2479  v =  0.0000  0.0000  0.0000  0.0000  0.0000  0.0005 -0.0001 -0.0111 -0.0003 -0.9999      0.0000  0.0000  0.0000  0.0000  0.0000  0.0000  0.0000  0.0000  0.0000  0.0000
  o =  0.2480  v = -0.0002  0.0000  0.0106  0.0002  0.9999  0.0000  0.0000  0.0000  0.0000  0.0000      0.0000  0.0000  0.0000  0.0000  0.0000  0.0000  0.0000  0.0000  0.0000  0.0000
atom =   6  type =  1  l = 2
 
 onsite density matrix
 
spin component  1
 
  0.1175  0.0002 -0.0000 -0.0000 -0.0000
  0.0002  0.0985  0.0000 -0.0000 -0.0000
 -0.0000  0.0000  0.2406  0.0000  0.0001
 -0.0000 -0.0000  0.0000  0.0985 -0.0000
 -0.0000 -0.0000  0.0001 -0.0000  0.2480
 
spin component  2
 
  0.1131 -0.0002 -0.0000 -0.0000 -0.0001
 -0.0002  0.0984  0.0000 -0.0000 -0.0000
 -0.0000  0.0000  0.2405  0.0000  0.0001
 -0.0000 -0.0000  0.0000  0.0984 -0.0001
 -0.0001 -0.0000  0.0001 -0.0001  0.2479
 
 occupancies and eigenvectors
 
  o =  0.0984  v =  0.0000  0.0000  0.0000  0.0000  0.0000 -0.0040 -0.2671  0.0002 -0.9637 -0.0004      0.0000  0.0000  0.0000  0.0000  0.0000  0.0000  0.0000  0.0000  0.0000  0.0000
  o =  0.0984  v =  0.0000  0.0000  0.0000  0.0000  0.0000 -0.0100 -0.9636 -0.0000  0.2671 -0.0001      0.0000  0.0000  0.0000  0.0000  0.0000  0.0000  0.0000  0.0000  0.0000  0.0000
  o =  0.0985  v = -0.0111  0.9577 -0.0001  0.2876  0.0001  0.0000  0.0000  0.0000  0.0000  0.0000      0.0000  0.0000  0.0000  0.0000  0.0000  0.0000  0.0000  0.0000  0.0000  0.0000
  o =  0.0985  v =  0.0036 -0.2875 -0.0001  0.9578  0.0002  0.0000  0.0000  0.0000  0.0000  0.0000      0.0000  0.0000  0.0000  0.0000  0.0000  0.0000  0.0000  0.0000  0.0000  0.0000
  o =  0.1131  v =  0.0000  0.0000  0.0000  0.0000  0.0000  0.9999 -0.0107  0.0000 -0.0012  0.0005      0.0000  0.0000  0.0000  0.0000  0.0000  0.0000  0.0000  0.0000  0.0000  0.0000
  o =  0.1175  v = -0.9999 -0.0117 -0.0002  0.0002 -0.0001  0.0000  0.0000  0.0000  0.0000  0.0000      0.0000  0.0000  0.0000  0.0000  0.0000  0.0000  0.0000  0.0000  0.0000  0.0000
  o =  0.2405  v =  0.0000  0.0000  0.0000  0.0000  0.0000 -0.0000  0.0000  0.9999  0.0002 -0.0119      0.0000  0.0000  0.0000  0.0000  0.0000  0.0000  0.0000  0.0000  0.0000  0.0000
  o =  0.2406  v =  0.0002 -0.0000 -0.9999 -0.0001  0.0114  0.0000  0.0000  0.0000  0.0000  0.0000      0.0000  0.0000  0.0000  0.0000  0.0000  0.0000  0.0000  0.0000  0.0000  0.0000
  o =  0.2479  v =  0.0000  0.0000  0.0000  0.0000  0.0000 -0.0005 -0.0002  0.0119 -0.0003  0.9999      0.0000  0.0000  0.0000  0.0000  0.0000  0.0000  0.0000  0.0000  0.0000  0.0000
  o =  0.2480  v =  0.0001  0.0000 -0.0114  0.0002 -0.9999  0.0000  0.0000  0.0000  0.0000  0.0000      0.0000  0.0000  0.0000  0.0000  0.0000  0.0000  0.0000  0.0000  0.0000  0.0000
atom =   7  type =  1  l = 2
 
 onsite density matrix
 
spin component  1
 
  0.1177  0.0001 -0.0000  0.0003  0.0000
  0.0001  0.0985  0.0000 -0.0000  0.0000
 -0.0000  0.0000  0.2406 -0.0000 -0.0001
  0.0003 -0.0000 -0.0000  0.0985  0.0000
  0.0000  0.0000 -0.0001  0.0000  0.2480
 
spin component  2
 
  0.1140 -0.0001 -0.0000 -0.0000  0.0001
 -0.0001  0.0983  0.0000 -0.0000  0.0001
 -0.0000  0.0000  0.2404  0.0000 -0.0001
 -0.0000 -0.0000  0.0000  0.0985  0.0000
  0.0001  0.0001 -0.0001  0.0000  0.2478
 
 occupancies and eigenvectors
 
  o =  0.0983  v =  0.0000  0.0000  0.0000  0.0000  0.0000  0.0040  0.9995 -0.0003  0.0300 -0.0006      0.0000  0.0000  0.0000  0.0000  0.0000  0.0000  0.0000  0.0000  0.0000  0.0000
  o =  0.0985  v = -0.0173  0.0850  0.0000  0.9962 -0.0001  0.0000  0.0000  0.0000  0.0000  0.0000      0.0000  0.0000  0.0000  0.0000  0.0000  0.0000  0.0000  0.0000  0.0000  0.0000
  o =  0.0985  v =  0.0000  0.0000  0.0000  0.0000  0.0000 -0.0004  0.0300  0.0000 -0.9995  0.0000      0.0000  0.0000  0.0000  0.0000  0.0000  0.0000  0.0000  0.0000  0.0000  0.0000
  o =  0.0985  v = -0.0021  0.9964 -0.0002 -0.0851 -0.0001  0.0000  0.0000  0.0000  0.0000  0.0000      0.0000  0.0000  0.0000  0.0000  0.0000  0.0000  0.0000  0.0000  0.0000  0.0000
  o =  0.1140  v =  0.0000  0.0000  0.0000  0.0000  0.0000  1.0000 -0.0040  0.0001 -0.0005 -0.0005      0.0000  0.0000  0.0000  0.0000  0.0000  0.0000  0.0000  0.0000  0.0000  0.0000
  o =  0.1177  v = -0.9998 -0.0036 -0.0001 -0.0170  0.0000  0.0000  0.0000  0.0000  0.0000  0.0000      0.0000  0.0000  0.0000  0.0000  0.0000  0.0000  0.0000  0.0000  0.0000  0.0000
  o =  0.2404  v =  0.0000  0.0000  0.0000  0.0000  0.0000 -0.0001  0.0003  1.0000  0.0000  0.0093      0.0000  0.0000  0.0000  0.0000  0.0000  0.0000  0.0000  0.0000  0.0000  0.0000
  o =  0.2406  v =  0.0001 -0.0002 -1.0000  0.0001 -0.0070  0.0000  0.0000  0.0000  0.0000  0.0000      0.0000  0.0000  0.0000  0.0000  0.0000  0.0000  0.0000  0.0000  0.0000  0.0000
  o =  0.2478  v =  0.0000  0.0000  0.0000  0.0000  0.0000 -0.0005 -0.0006  0.0093 -0.0000 -1.0000      0.0000  0.0000  0.0000  0.0000  0.0000  0.0000  0.0000  0.0000  0.0000  0.0000
  o =  0.2480  v =  0.0000  0.0001 -0.0070  0.0001  1.0000  0.0000  0.0000  0.0000  0.0000  0.0000      0.0000  0.0000  0.0000  0.0000  0.0000  0.0000  0.0000  0.0000  0.0000  0.0000
atom =   8  type =  1  l = 2
 
 onsite density matrix
 
spin component  1
 
  0.1174 -0.0002  0.0001  0.0003  0.0000
 -0.0002  0.0986  0.0000  0.0001 -0.0001
  0.0001  0.0000  0.2404  0.0000  0.0000
  0.0003  0.0001  0.0000  0.0984 -0.0001
  0.0000 -0.0001  0.0000 -0.0001  0.2482
 
spin component  2
 
  0.1136  0.0000  0.0000  0.0001  0.0000
  0.0000  0.0985 -0.0000  0.0000  0.0000
  0.0000 -0.0000  0.2403  0.0000  0.0000
  0.0001  0.0000  0.0000  0.0984 -0.0000
  0.0000  0.0000  0.0000 -0.0000  0.2479
 
 occupancies and eigenvectors
 
  o =  0.0984  v =  0.0000  0.0000  0.0000  0.0000  0.0000  0.0060  0.2570  0.0002 -0.9664 -0.0002      0.0000  0.0000  0.0000  0.0000  0.0000  0.0000  0.0000  0.0000  0.0000  0.0000
  o =  0.0984  v =  0.0186  0.4517  0.0001 -0.8920 -0.0003  0.0000  0.0000  0.0000  0.0000  0.0000      0.0000  0.0000  0.0000  0.0000  0.0000  0.0000  0.0000  0.0000  0.0000  0.0000
  o =  0.0985  v =  0.0000  0.0000  0.0000  0.0000  0.0000 -0.0018  0.9664  0.0000  0.2570 -0.0002      0.0000  0.0000  0.0000  0.0000  0.0000  0.0000  0.0000  0.0000  0.0000  0.0000
  o =  0.0987  v =  0.0003  0.8921 -0.0001  0.4518  0.0006  0.0000  0.0000  0.0000  0.0000  0.0000      0.0000  0.0000  0.0000  0.0000  0.0000  0.0000  0.0000  0.0000  0.0000  0.0000
  o =  0.1136  v =  0.0000  0.0000  0.0000  0.0000  0.0000  1.0000  0.0002 -0.0002  0.0063 -0.0001      0.0000  0.0000  0.0000  0.0000  0.0000  0.0000  0.0000  0.0000  0.0000  0.0000
  o =  0.1174  v =  0.9998 -0.0086 -0.0006  0.0165 -0.0001  0.0000  0.0000  0.0000  0.0000  0.0000      0.0000  0.0000  0.0000  0.0000  0.0000  0.0000  0.0000  0.0000  0.0000  0.0000
  o =  0.2403  v =  0.0000  0.0000  0.0000  0.0000  0.0000 -0.0002  0.0001 -1.0000 -0.0002  0.0004      0.0000  0.0000  0.0000  0.0000  0.0000  0.0000  0.0000  0.0000  0.0000  0.0000
  o =  0.2404  v = -0.0006 -0.0001 -1.0000 -0.0002  0.0011  0.0000  0.0000  0.0000  0.0000  0.0000      0.0000  0.0000  0.0000  0.0000  0.0000  0.0000  0.0000  0.0000  0.0000  0.0000
  o =  0.2479  v =  0.0000  0.0000  0.0000  0.0000  0.0000  0.0001  0.0002  0.0004 -0.0001  1.0000      0.0000  0.0000  0.0000  0.0000  0.0000  0.0000  0.0000  0.0000  0.0000  0.0000
  o =  0.2482  v =  0.0001 -0.0004  0.0011 -0.0005  1.0000  0.0000  0.0000  0.0000  0.0000  0.0000      0.0000  0.0000  0.0000  0.0000  0.0000  0.0000  0.0000  0.0000  0.0000  0.0000
atom =   9  type =  1  l = 2
 
 onsite density matrix
 
spin component  1
 
  0.1181  0.0001 -0.0001  0.0003 -0.0000
  0.0001  0.0986  0.0000 -0.0001 -0.0001
 -0.0001  0.0000  0.2404 -0.0000  0.0000
  0.0003 -0.0001 -0.0000  0.0984  0.0001
 -0.0000 -0.0001  0.0000  0.0001  0.2481
 
spin component  2
 
  0.1132 -0.0001 -0.0000  0.0000  0.0000
 -0.0001  0.0985  0.0000  0.0000  0.0000
 -0.0000  0.0000  0.2402 -0.0000  0.0000
  0.0000  0.0000 -0.0000  0.0984  0.0000
  0.0000  0.0000  0.0000  0.0000  0.2479
 
 occupancies and eigenvectors
 
  o =  0.0984  v =  0.0000  0.0000  0.0000  0.0000  0.0000  0.0009  0.0415 -0.0001 -0.9991  0.0002      0.0000  0.0000  0.0000  0.0000  0.0000  0.0000  0.0000  0.0000  0.0000  0.0000
  o =  0.0984  v =  0.0161 -0.2977  0.0000 -0.9545  0.0004  0.0000  0.0000  0.0000  0.0000  0.0000      0.0000  0.0000  0.0000  0.0000  0.0000  0.0000  0.0000  0.0000  0.0000  0.0000
  o =  0.0985  v =  0.0000  0.0000  0.0000  0.0000  0.0000  0.0050  0.9991 -0.0000  0.0415 -0.0002      0.0000  0.0000  0.0000  0.0000  0.0000  0.0000  0.0000  0.0000  0.0000  0.0000
  o =  0.0986  v =  0.0011  0.9547 -0.0001 -0.2977  0.0006  0.0000  0.0000  0.0000  0.0000  0.0000      0.0000  0.0000  0.0000  0.0000  0.0000  0.0000  0.0000  0.0000  0.0000  0.0000
  o =  0.1132  v =  0.0000  0.0000  0.0000  0.0000  0.0000  1.0000 -0.0050  0.0002  0.0006 -0.0001      0.0000  0.0000  0.0000  0.0000  0.0000  0.0000  0.0000  0.0000  0.0000  0.0000
  o =  0.1181  v =  0.9999  0.0038  0.0008  0.0156  0.0001  0.0000  0.0000  0.0000  0.0000  0.0000      0.0000  0.0000  0.0000  0.0000  0.0000  0.0000  0.0000  0.0000  0.0000  0.0000
  o =  0.2402  v =  0.0000  0.0000  0.0000  0.0000  0.0000 -0.0002  0.0000  1.0000 -0.0001 -0.0013      0.0000  0.0000  0.0000  0.0000  0.0000  0.0000  0.0000  0.0000  0.0000  0.0000
  o =  0.2404  v = -0.0008  0.0001  1.0000 -0.0000 -0.0013  0.0000  0.0000  0.0000  0.0000  0.0000      0.0000  0.0000  0.0000  0.0000  0.0000  0.0000  0.0000  0.0000  0.0000  0.0000
  o =  0.2479  v =  0.0000  0.0000  0.0000  0.0000  0.0000  0.0001  0.0002  0.0013  0.0002  1.0000      0.0000  0.0000  0.0000  0.0000  0.0000  0.0000  0.0000  0.0000  0.0000  0.0000
  o =  0.2481  v =  0.0001  0.0004 -0.0013 -0.0006 -1.0000  0.0000  0.0000  0.0000  0.0000  0.0000      0.0000  0.0000  0.0000  0.0000  0.0000  0.0000  0.0000  0.0000  0.0000  0.0000
atom =  10  type =  1  l = 2
 
 onsite density matrix
 
spin component  1
 
  0.1141 -0.0003 -0.0002 -0.0004  0.0000
 -0.0003  0.0988  0.0002  0.0002  0.0000
 -0.0002  0.0002  0.2405  0.0002 -0.0000
 -0.0004  0.0002  0.0002  0.0990 -0.0001
  0.0000  0.0000 -0.0000 -0.0001  0.2485
 
spin component  2
 
  0.1138  0.0001 -0.0001 -0.0001  0.0001
  0.0001  0.0984  0.0001 -0.0002  0.0000
 -0.0001  0.0001  0.2404  0.0001 -0.0000
 -0.0001 -0.0002  0.0001  0.0986 -0.0001
  0.0001  0.0000 -0.0000 -0.0001  0.2485
 
 occupancies and eigenvectors
 
  o =  0.0983  v =  0.0000  0.0000  0.0000  0.0000  0.0000  0.0012 -0.8895  0.0006 -0.4569 -0.0002      0.0000  0.0000  0.0000  0.0000  0.0000  0.0000  0.0000  0.0000  0.0000  0.0000
  o =  0.0987  v =  0.0036  0.8316 -0.0002 -0.5553 -0.0006  0.0000  0.0000  0.0000  0.0000  0.0000      0.0000  0.0000  0.0000  0.0000  0.0000  0.0000  0.0000  0.0000  0.0000  0.0000
  o =  0.0987  v =  0.0000  0.0000  0.0000  0.0000  0.0000 -0.0086  0.4568  0.0003 -0.8895 -0.0006      0.0000  0.0000  0.0000  0.0000  0.0000  0.0000  0.0000  0.0000  0.0000  0.0000
  o =  0.0990  v =  0.0320  0.5549 -0.0017  0.8313  0.0003  0.0000  0.0000  0.0000  0.0000  0.0000      0.0000  0.0000  0.0000  0.0000  0.0000  0.0000  0.0000  0.0000  0.0000  0.0000
  o =  0.1138  v =  0.0000  0.0000  0.0000  0.0000  0.0000  1.0000  0.0050  0.0009 -0.0071 -0.0005      0.0000  0.0000  0.0000  0.0000  0.0000  0.0000  0.0000  0.0000  0.0000  0.0000
  o =  0.1142  v =  0.9995 -0.0207  0.0014 -0.0246 -0.0002  0.0000  0.0000  0.0000  0.0000  0.0000      0.0000  0.0000  0.0000  0.0000  0.0000  0.0000  0.0000  0.0000  0.0000  0.0000
  o =  0.2404  v =  0.0000  0.0000  0.0000  0.0000  0.0000 -0.0009  0.0004  1.0000  0.0006  0.0011      0.0000  0.0000  0.0000  0.0000  0.0000  0.0000  0.0000  0.0000  0.0000  0.0000
  o =  0.2405  v = -0.0013  0.0012  1.0000  0.0013  0.0004  0.0000  0.0000  0.0000  0.0000  0.0000      0.0000  0.0000  0.0000  0.0000  0.0000  0.0000  0.0000  0.0000  0.0000  0.0000
  o =  0.2485  v =  0.0000  0.0000  0.0000  0.0000  0.0000  0.0005  0.0001 -0.0011 -0.0007  1.0000      0.0000  0.0000  0.0000  0.0000  0.0000  0.0000  0.0000  0.0000  0.0000  0.0000
  o =  0.2485  v =  0.0002  0.0003 -0.0004 -0.0006  1.0000  0.0000  0.0000  0.0000  0.0000  0.0000      0.0000  0.0000  0.0000  0.0000  0.0000  0.0000  0.0000  0.0000  0.0000  0.0000
atom =  11  type =  1  l = 2
 
 onsite density matrix
 
spin component  1
 
  0.1133  0.0000  0.0000 -0.0000 -0.0000
  0.0000  0.1077  0.0017  0.0000  0.0043
  0.0000  0.0017  0.2388  0.0000  0.0015
 -0.0000  0.0000  0.0000  0.0972  0.0000
 -0.0000  0.0043  0.0015  0.0000  0.2504
 
spin component  2
 
  0.1119 -0.0000  0.0000  0.0002 -0.0001
 -0.0000  0.1000  0.0013  0.0000  0.0017
  0.0000  0.0013  0.2388 -0.0000  0.0017
  0.0002  0.0000 -0.0000  0.0971  0.0000
 -0.0001  0.0017  0.0017  0.0000  0.2494
 
 occupancies and eigenvectors
 
  o =  0.0971  v =  0.0000  0.0000  0.0000  0.0000  0.0000  0.0103  0.0004 -0.0000 -0.9999  0.0000      0.0000  0.0000  0.0000  0.0000  0.0000  0.0000  0.0000  0.0000  0.0000  0.0000
  o =  0.0972  v =  0.0030 -0.0001 -0.0000  1.0000 -0.0000  0.0000  0.0000  0.0000  0.0000  0.0000      0.0000  0.0000  0.0000  0.0000  0.0000  0.0000  0.0000  0.0000  0.0000  0.0000
  o =  0.1000  v =  0.0000  0.0000  0.0000  0.0000  0.0000 -0.0018 -0.9999  0.0089 -0.0004  0.0111      0.0000  0.0000  0.0000  0.0000  0.0000  0.0000  0.0000  0.0000  0.0000  0.0000
  o =  0.1076  v =  0.0029 -0.9995  0.0129 -0.0001  0.0299  0.0000  0.0000  0.0000  0.0000  0.0000      0.0000  0.0000  0.0000  0.0000  0.0000  0.0000  0.0000  0.0000  0.0000  0.0000
  o =  0.1119  v =  0.0000  0.0000  0.0000  0.0000  0.0000  0.9999 -0.0018 -0.0002  0.0103  0.0006      0.0000  0.0000  0.0000  0.0000  0.0000  0.0000  0.0000  0.0000  0.0000  0.0000
  o =  0.1133  v =  1.0000  0.0029 -0.0001 -0.0030 -0.0000  0.0000  0.0000  0.0000  0.0000  0.0000      0.0000  0.0000  0.0000  0.0000  0.0000  0.0000  0.0000  0.0000  0.0000  0.0000
  o =  0.2385  v =  0.0000  0.0000  0.0000  0.0000  0.0000  0.0003  0.0071  0.9881 -0.0000 -0.1537      0.0000  0.0000  0.0000  0.0000  0.0000  0.0000  0.0000  0.0000  0.0000  0.0000
  o =  0.2386  v =  0.0001  0.0090  0.9917  0.0000 -0.1279  0.0000  0.0000  0.0000  0.0000  0.0000      0.0000  0.0000  0.0000  0.0000  0.0000  0.0000  0.0000  0.0000  0.0000  0.0000
  o =  0.2497  v =  0.0000  0.0000  0.0000  0.0000  0.0000 -0.0005  0.0123  0.1536  0.0000  0.9881      0.0000  0.0000  0.0000  0.0000  0.0000  0.0000  0.0000  0.0000  0.0000  0.0000
  o =  0.2507  v = -0.0001  0.0313  0.1276  0.0000  0.9913  0.0000  0.0000  0.0000  0.0000  0.0000      0.0000  0.0000  0.0000  0.0000  0.0000  0.0000  0.0000  0.0000  0.0000  0.0000
atom =  12  type =  1  l = 2
 
 onsite density matrix
 
spin component  1
 
  0.1141  0.0004  0.0002 -0.0004 -0.0000
  0.0004  0.0988  0.0002 -0.0002  0.0000
  0.0002  0.0002  0.2405 -0.0002 -0.0000
 -0.0004 -0.0002 -0.0002  0.0990  0.0001
 -0.0000  0.0000 -0.0000  0.0001  0.2485
 
spin component  2
 
  0.1141  0.0000  0.0001 -0.0002 -0.0001
  0.0000  0.0984  0.0001 -0.0000 -0.0001
  0.0001  0.0001  0.2404 -0.0001 -0.0000
 -0.0002 -0.0000 -0.0001  0.0987  0.0000
 -0.0001 -0.0001 -0.0000  0.0000  0.2484
 
 occupancies and eigenvectors
 
  o =  0.0984  v =  0.0000  0.0000  0.0000  0.0000  0.0000 -0.0011  0.9974 -0.0004  0.0715  0.0004      0.0000  0.0000  0.0000  0.0000  0.0000  0.0000  0.0000  0.0000  0.0000  0.0000
  o =  0.0987  v =  0.0000  0.0000  0.0000  0.0000  0.0000  0.0161 -0.0715  0.0007  0.9973 -0.0003      0.0000  0.0000  0.0000  0.0000  0.0000  0.0000  0.0000  0.0000  0.0000  0.0000
  o =  0.0987  v = -0.0054  0.8222 -0.0002  0.5691 -0.0004  0.0000  0.0000  0.0000  0.0000  0.0000      0.0000  0.0000  0.0000  0.0000  0.0000  0.0000  0.0000  0.0000  0.0000  0.0000
  o =  0.0991  v =  0.0363 -0.5686  0.0017  0.8218 -0.0004  0.0000  0.0000  0.0000  0.0000  0.0000      0.0000  0.0000  0.0000  0.0000  0.0000  0.0000  0.0000  0.0000  0.0000  0.0000
  o =  0.1141  v =  0.0000  0.0000  0.0000  0.0000  0.0000  0.9999  0.0022 -0.0011 -0.0160  0.0005      0.0000  0.0000  0.0000  0.0000  0.0000  0.0000  0.0000  0.0000  0.0000  0.0000
  o =  0.1142  v =  0.9993  0.0251 -0.0014 -0.0268  0.0001  0.0000  0.0000  0.0000  0.0000  0.0000      0.0000  0.0000  0.0000  0.0000  0.0000  0.0000  0.0000  0.0000  0.0000  0.0000
  o =  0.2404  v =  0.0000  0.0000  0.0000  0.0000  0.0000 -0.0011 -0.0005 -1.0000  0.0007 -0.0012      0.0000  0.0000  0.0000  0.0000  0.0000  0.0000  0.0000  0.0000  0.0000  0.0000
  o =  0.2405  v =  0.0014  0.0012  1.0000 -0.0013  0.0006  0.0000  0.0000  0.0000  0.0000  0.0000      0.0000  0.0000  0.0000  0.0000  0.0000  0.0000  0.0000  0.0000  0.0000  0.0000
  o =  0.2484  v =  0.0000  0.0000  0.0000  0.0000  0.0000  0.0005  0.0004  0.0012 -0.0003 -1.0000      0.0000  0.0000  0.0000  0.0000  0.0000  0.0000  0.0000  0.0000  0.0000  0.0000
  o =  0.2485  v = -0.0001  0.0001 -0.0006  0.0005  1.0000  0.0000  0.0000  0.0000  0.0000  0.0000      0.0000  0.0000  0.0000  0.0000  0.0000  0.0000  0.0000  0.0000  0.0000  0.0000
atom =  13  type =  1  l = 2
 
 onsite density matrix
 
spin component  1
 
  0.1143 -0.0003  0.0002  0.0004 -0.0000
 -0.0003  0.0988 -0.0002 -0.0002 -0.0000
  0.0002 -0.0002  0.2404  0.0002 -0.0000
  0.0004 -0.0002  0.0002  0.0990 -0.0001
 -0.0000 -0.0000 -0.0000 -0.0001  0.2485
 
spin component  2
 
  0.1139 -0.0000  0.0001  0.0002 -0.0000
 -0.0000  0.0984 -0.0001 -0.0000  0.0000
  0.0001 -0.0001  0.2404  0.0001 -0.0000
  0.0002 -0.0000  0.0001  0.0987 -0.0001
 -0.0000  0.0000 -0.0000 -0.0001  0.2484
 
 occupancies and eigenvectors
 
  o =  0.0984  v =  0.0000  0.0000  0.0000  0.0000  0.0000 -0.0016 -0.9984 -0.0005 -0.0562  0.0001      0.0000  0.0000  0.0000  0.0000  0.0000  0.0000  0.0000  0.0000  0.0000  0.0000
  o =  0.0987  v =  0.0000  0.0000  0.0000  0.0000  0.0000  0.0137  0.0562  0.0008 -0.9983 -0.0004      0.0000  0.0000  0.0000  0.0000  0.0000  0.0000  0.0000  0.0000  0.0000  0.0000
  o =  0.0987  v = -0.0011 -0.8012 -0.0002 -0.5984 -0.0004  0.0000  0.0000  0.0000  0.0000  0.0000      0.0000  0.0000  0.0000  0.0000  0.0000  0.0000  0.0000  0.0000  0.0000  0.0000
  o =  0.0991  v =  0.0357  0.5980  0.0017 -0.8007 -0.0003  0.0000  0.0000  0.0000  0.0000  0.0000      0.0000  0.0000  0.0000  0.0000  0.0000  0.0000  0.0000  0.0000  0.0000  0.0000
  o =  0.1139  v =  0.0000  0.0000  0.0000  0.0000  0.0000  0.9999 -0.0023 -0.0011  0.0136  0.0004      0.0000  0.0000  0.0000  0.0000  0.0000  0.0000  0.0000  0.0000  0.0000  0.0000
  o =  0.1143  v =  0.9994 -0.0223 -0.0015  0.0280  0.0003  0.0000  0.0000  0.0000  0.0000  0.0000      0.0000  0.0000  0.0000  0.0000  0.0000  0.0000  0.0000  0.0000  0.0000  0.0000
  o =  0.2404  v =  0.0000  0.0000  0.0000  0.0000  0.0000 -0.0010  0.0005 -1.0000 -0.0007 -0.0013      0.0000  0.0000  0.0000  0.0000  0.0000  0.0000  0.0000  0.0000  0.0000  0.0000
  o =  0.2404  v = -0.0014  0.0012 -1.0000 -0.0013 -0.0008  0.0000  0.0000  0.0000  0.0000  0.0000      0.0000  0.0000  0.0000  0.0000  0.0000  0.0000  0.0000  0.0000  0.0000  0.0000
  o =  0.2484  v =  0.0000  0.0000  0.0000  0.0000  0.0000  0.0004 -0.0001  0.0013  0.0004 -1.0000      0.0000  0.0000  0.0000  0.0000  0.0000  0.0000  0.0000  0.0000  0.0000  0.0000
  o =  0.2485  v =  0.0003  0.0001  0.0008  0.0005 -1.0000  0.0000  0.0000  0.0000  0.0000  0.0000      0.0000  0.0000  0.0000  0.0000  0.0000  0.0000  0.0000  0.0000  0.0000  0.0000
atom =  14  type =  1  l = 2
 
 onsite density matrix
 
spin component  1
 
  0.1133  0.0000  0.0000  0.0000 -0.0000
  0.0000  0.1078 -0.0017 -0.0000 -0.0043
  0.0000 -0.0017  0.2388  0.0000  0.0015
  0.0000 -0.0000  0.0000  0.0973 -0.0000
 -0.0000 -0.0043  0.0015 -0.0000  0.2503
 
spin component  2
 
  0.1119 -0.0000  0.0000 -0.0001 -0.0000
 -0.0000  0.1000 -0.0013 -0.0000 -0.0017
  0.0000 -0.0013  0.2388  0.0000  0.0017
 -0.0001 -0.0000  0.0000  0.0971 -0.0000
 -0.0000 -0.0017  0.0017 -0.0000  0.2494
 
 occupancies and eigenvectors
 
  o =  0.0971  v =  0.0000  0.0000  0.0000  0.0000  0.0000 -0.0088 -0.0006  0.0000 -1.0000 -0.0000      0.0000  0.0000  0.0000  0.0000  0.0000  0.0000  0.0000  0.0000  0.0000  0.0000
  o =  0.0973  v = -0.0019  0.0002 -0.0000  1.0000  0.0000  0.0000  0.0000  0.0000  0.0000  0.0000      0.0000  0.0000  0.0000  0.0000  0.0000  0.0000  0.0000  0.0000  0.0000  0.0000
  o =  0.1000  v =  0.0000  0.0000  0.0000  0.0000  0.0000 -0.0034 -0.9999 -0.0089  0.0006 -0.0111      0.0000  0.0000  0.0000  0.0000  0.0000  0.0000  0.0000  0.0000  0.0000  0.0000
  o =  0.1076  v =  0.0023 -0.9995 -0.0130  0.0002 -0.0300  0.0000  0.0000  0.0000  0.0000  0.0000      0.0000  0.0000  0.0000  0.0000  0.0000  0.0000  0.0000  0.0000  0.0000  0.0000
  o =  0.1119  v =  0.0000  0.0000  0.0000  0.0000  0.0000  1.0000 -0.0034 -0.0002 -0.0088  0.0003      0.0000  0.0000  0.0000  0.0000  0.0000  0.0000  0.0000  0.0000  0.0000  0.0000
  o =  0.1133  v =  1.0000  0.0023  0.0000  0.0019  0.0002  0.0000  0.0000  0.0000  0.0000  0.0000      0.0000  0.0000  0.0000  0.0000  0.0000  0.0000  0.0000  0.0000  0.0000  0.0000
  o =  0.2385  v =  0.0000  0.0000  0.0000  0.0000  0.0000 -0.0002  0.0071 -0.9882 -0.0000  0.1532      0.0000  0.0000  0.0000  0.0000  0.0000  0.0000  0.0000  0.0000  0.0000  0.0000
  o =  0.2386  v = -0.0000  0.0090 -0.9917 -0.0000  0.1282  0.0000  0.0000  0.0000  0.0000  0.0000      0.0000  0.0000  0.0000  0.0000  0.0000  0.0000  0.0000  0.0000  0.0000  0.0000
  o =  0.2497  v =  0.0000  0.0000  0.0000  0.0000  0.0000  0.0003  0.0123 -0.1531  0.0000 -0.9881      0.0000  0.0000  0.0000  0.0000  0.0000  0.0000  0.0000  0.0000  0.0000  0.0000
  o =  0.2507  v =  0.0001  0.0314 -0.1278  0.0000 -0.9913  0.0000  0.0000  0.0000  0.0000  0.0000      0.0000  0.0000  0.0000  0.0000  0.0000  0.0000  0.0000  0.0000  0.0000  0.0000
atom =  15  type =  1  l = 2
 
 onsite density matrix
 
spin component  1
 
  0.1142  0.0004 -0.0002  0.0004  0.0000
  0.0004  0.0988 -0.0002  0.0001 -0.0000
 -0.0002 -0.0002  0.2404 -0.0002 -0.0000
  0.0004  0.0001 -0.0002  0.0989  0.0001
  0.0000 -0.0000 -0.0000  0.0001  0.2485
 
spin component  2
 
  0.1138 -0.0001 -0.0001  0.0001  0.0000
 -0.0001  0.0984 -0.0001 -0.0001 -0.0000
 -0.0001 -0.0001  0.2404 -0.0001 -0.0000
  0.0001 -0.0001 -0.0001  0.0987  0.0001
  0.0000 -0.0000 -0.0000  0.0001  0.2485
 
 occupancies and eigenvectors
 
  o =  0.0983  v =  0.0000  0.0000  0.0000  0.0000  0.0000  0.0033  0.9480  0.0006  0.3183 -0.0002      0.0000  0.0000  0.0000  0.0000  0.0000  0.0000  0.0000  0.0000  0.0000  0.0000
  o =  0.0987  v =  0.0000  0.0000  0.0000  0.0000  0.0000 -0.0087 -0.3183  0.0005  0.9480 -0.0006      0.0000  0.0000  0.0000  0.0000  0.0000  0.0000  0.0000  0.0000  0.0000  0.0000
  o =  0.0987  v =  0.0054 -0.8495 -0.0003  0.5275 -0.0005  0.0000  0.0000  0.0000  0.0000  0.0000      0.0000  0.0000  0.0000  0.0000  0.0000  0.0000  0.0000  0.0000  0.0000  0.0000
  o =  0.0990  v =  0.0352 -0.5270 -0.0016 -0.8491  0.0004  0.0000  0.0000  0.0000  0.0000  0.0000      0.0000  0.0000  0.0000  0.0000  0.0000  0.0000  0.0000  0.0000  0.0000  0.0000
  o =  0.1138  v =  0.0000  0.0000  0.0000  0.0000  0.0000  1.0000 -0.0059  0.0009  0.0072 -0.0004      0.0000  0.0000  0.0000  0.0000  0.0000  0.0000  0.0000  0.0000  0.0000  0.0000
  o =  0.1143  v =  0.9994  0.0231  0.0014  0.0270 -0.0002  0.0000  0.0000  0.0000  0.0000  0.0000      0.0000  0.0000  0.0000  0.0000  0.0000  0.0000  0.0000  0.0000  0.0000  0.0000
  o =  0.2404  v =  0.0000  0.0000  0.0000  0.0000  0.0000 -0.0009 -0.0004  1.0000 -0.0006  0.0014      0.0000  0.0000  0.0000  0.0000  0.0000  0.0000  0.0000  0.0000  0.0000  0.0000
  o =  0.2404  v = -0.0014 -0.0012  1.0000 -0.0012  0.0010  0.0000  0.0000  0.0000  0.0000  0.0000      0.0000  0.0000  0.0000  0.0000  0.0000  0.0000  0.0000  0.0000  0.0000  0.0000
  o =  0.2485  v =  0.0000  0.0000  0.0000  0.0000  0.0000  0.0004 -0.0000 -0.0014  0.0006  1.0000      0.0000  0.0000  0.0000  0.0000  0.0000  0.0000  0.0000  0.0000  0.0000  0.0000
  o =  0.2485  v =  0.0002 -0.0002 -0.0010  0.0007  1.0000  0.0000  0.0000  0.0000  0.0000  0.0000      0.0000  0.0000  0.0000  0.0000  0.0000  0.0000  0.0000  0.0000  0.0000  0.0000
atom =  16  type =  1  l = 2
 
 onsite density matrix
 
spin component  1
 
  0.1134 -0.0001  0.0000 -0.0000  0.0000
 -0.0001  0.0973 -0.0000 -0.0000 -0.0000
  0.0000 -0.0000  0.2388  0.0017 -0.0015
 -0.0000 -0.0000  0.0017  0.1078 -0.0043
  0.0000 -0.0000 -0.0015 -0.0043  0.2503
 
spin component  2
 
  0.1124  0.0001  0.0000  0.0000  0.0001
  0.0001  0.0971  0.0000 -0.0000  0.0000
  0.0000  0.0000  0.2387  0.0012 -0.0017
  0.0000 -0.0000  0.0012  0.1000 -0.0017
  0.0001  0.0000 -0.0017 -0.0017  0.2494
 
 occupancies and eigenvectors
 
  o =  0.0971  v =  0.0000  0.0000  0.0000  0.0000  0.0000 -0.0077  1.0000 -0.0000  0.0001 -0.0000      0.0000  0.0000  0.0000  0.0000  0.0000  0.0000  0.0000  0.0000  0.0000  0.0000
  o =  0.0973  v =  0.0033  1.0000  0.0000  0.0003  0.0000  0.0000  0.0000  0.0000  0.0000  0.0000      0.0000  0.0000  0.0000  0.0000  0.0000  0.0000  0.0000  0.0000  0.0000  0.0000
  o =  0.1000  v =  0.0000  0.0000  0.0000  0.0000  0.0000 -0.0025 -0.0001 -0.0089  0.9999  0.0112      0.0000  0.0000  0.0000  0.0000  0.0000  0.0000  0.0000  0.0000  0.0000  0.0000
  o =  0.1076  v = -0.0022  0.0003  0.0129 -0.9995 -0.0300  0.0000  0.0000  0.0000  0.0000  0.0000      0.0000  0.0000  0.0000  0.0000  0.0000  0.0000  0.0000  0.0000  0.0000  0.0000
  o =  0.1124  v =  0.0000  0.0000  0.0000  0.0000  0.0000  1.0000  0.0077 -0.0002  0.0025 -0.0004      0.0000  0.0000  0.0000  0.0000  0.0000  0.0000  0.0000  0.0000  0.0000  0.0000
  o =  0.1134  v =  1.0000 -0.0033  0.0000 -0.0022 -0.0002  0.0000  0.0000  0.0000  0.0000  0.0000      0.0000  0.0000  0.0000  0.0000  0.0000  0.0000  0.0000  0.0000  0.0000  0.0000
  o =  0.2385  v =  0.0000  0.0000  0.0000  0.0000  0.0000  0.0003  0.0000  0.9875  0.0070  0.1572      0.0000  0.0000  0.0000  0.0000  0.0000  0.0000  0.0000  0.0000  0.0000  0.0000
  o =  0.2386  v =  0.0000 -0.0000  0.9914  0.0089  0.1304  0.0000  0.0000  0.0000  0.0000  0.0000      0.0000  0.0000  0.0000  0.0000  0.0000  0.0000  0.0000  0.0000  0.0000  0.0000
  o =  0.2497  v =  0.0000  0.0000  0.0000  0.0000  0.0000 -0.0004 -0.0000  0.1571  0.0125 -0.9875      0.0000  0.0000  0.0000  0.0000  0.0000  0.0000  0.0000  0.0000  0.0000  0.0000
  o =  0.2506  v = -0.0001  0.0000  0.1301  0.0315 -0.9910  0.0000  0.0000  0.0000  0.0000  0.0000      0.0000  0.0000  0.0000  0.0000  0.0000  0.0000  0.0000  0.0000  0.0000  0.0000
atom =  17  type =  1  l = 2
 
 onsite density matrix
 
spin component  1
 
  0.0984  0.0000 -0.0000 -0.0000  0.0000
  0.0000  0.0872 -0.0000 -0.0000 -0.0000
 -0.0000 -0.0000  0.4613  0.0000  0.0000
 -0.0000 -0.0000  0.0000  0.0872 -0.0000
  0.0000 -0.0000  0.0000 -0.0000  0.2125
 
spin component  2
 
  0.0913 -0.0000 -0.0000  0.0000  0.0000
 -0.0000  0.0838 -0.0000 -0.0000 -0.0000
 -0.0000 -0.0000  0.1908  0.0000  0.0000
  0.0000 -0.0000  0.0000  0.0838  0.0000
  0.0000 -0.0000  0.0000  0.0000  0.2056
 
 occupancies and eigenvectors
 
  o =  0.0838  v =  0.0000  0.0000  0.0000  0.0000  0.0000  0.0001 -0.6021 -0.0000 -0.7984  0.0000      0.0000  0.0000  0.0000  0.0000  0.0000  0.0000  0.0000  0.0000  0.0000  0.0000
  o =  0.0838  v =  0.0000  0.0000  0.0000  0.0000  0.0000  0.0005  0.7984  0.0000 -0.6021  0.0000      0.0000  0.0000  0.0000  0.0000  0.0000  0.0000  0.0000  0.0000  0.0000  0.0000
  o =  0.0872  v = -0.0000  0.4557  0.0000  0.8901  0.0000  0.0000  0.0000  0.0000  0.0000  0.0000      0.0000  0.0000  0.0000  0.0000  0.0000  0.0000  0.0000  0.0000  0.0000  0.0000
  o =  0.0872  v = -0.0000  0.8901  0.0000 -0.4557  0.0000  0.0000  0.0000  0.0000  0.0000  0.0000      0.0000  0.0000  0.0000  0.0000  0.0000  0.0000  0.0000  0.0000  0.0000  0.0000
  o =  0.0913  v =  0.0000  0.0000  0.0000  0.0000  0.0000 -1.0000  0.0003 -0.0000 -0.0004  0.0000      0.0000  0.0000  0.0000  0.0000  0.0000  0.0000  0.0000  0.0000  0.0000  0.0000
  o =  0.0984  v = -1.0000 -0.0000 -0.0000  0.0000  0.0000  0.0000  0.0000  0.0000  0.0000  0.0000      0.0000  0.0000  0.0000  0.0000  0.0000  0.0000  0.0000  0.0000  0.0000  0.0000
  o =  0.1908  v =  0.0000  0.0000  0.0000  0.0000  0.0000 -0.0000 -0.0000  1.0000  0.0000 -0.0000      0.0000  0.0000  0.0000  0.0000  0.0000  0.0000  0.0000  0.0000  0.0000  0.0000
  o =  0.2056  v =  0.0000  0.0000  0.0000  0.0000  0.0000  0.0000 -0.0000  0.0000  0.0000  1.0000      0.0000  0.0000  0.0000  0.0000  0.0000  0.0000  0.0000  0.0000  0.0000  0.0000
  o =  0.2125  v =  0.0000 -0.0000 -0.0000 -0.0000  1.0000  0.0000  0.0000  0.0000  0.0000  0.0000      0.0000  0.0000  0.0000  0.0000  0.0000  0.0000  0.0000  0.0000  0.0000  0.0000
  o =  0.4613  v = -0.0000 -0.0000  1.0000  0.0000  0.0000  0.0000  0.0000  0.0000  0.0000  0.0000      0.0000  0.0000  0.0000  0.0000  0.0000  0.0000  0.0000  0.0000  0.0000  0.0000
atom =  18  type =  1  l = 2
 
 onsite density matrix
 
spin component  1
 
  0.1134  0.0001  0.0000 -0.0000  0.0000
  0.0001  0.0972  0.0000  0.0000  0.0000
  0.0000  0.0000  0.2388 -0.0017 -0.0015
 -0.0000  0.0000 -0.0017  0.1077  0.0043
  0.0000  0.0000 -0.0015  0.0043  0.2503
 
spin component  2
 
  0.1124 -0.0001  0.0000  0.0000  0.0001
 -0.0001  0.0971  0.0000 -0.0000  0.0000
  0.0000  0.0000  0.2387 -0.0013 -0.0017
  0.0000 -0.0000 -0.0013  0.1000  0.0017
  0.0001  0.0000 -0.0017  0.0017  0.2493
 
 occupancies and eigenvectors
 
  o =  0.0971  v =  0.0000  0.0000  0.0000  0.0000  0.0000  0.0079  1.0000 -0.0000  0.0001 -0.0001      0.0000  0.0000  0.0000  0.0000  0.0000  0.0000  0.0000  0.0000  0.0000  0.0000
  o =  0.0972  v =  0.0036 -1.0000  0.0000  0.0002 -0.0000  0.0000  0.0000  0.0000  0.0000  0.0000      0.0000  0.0000  0.0000  0.0000  0.0000  0.0000  0.0000  0.0000  0.0000  0.0000
  o =  0.1000  v =  0.0000  0.0000  0.0000  0.0000  0.0000 -0.0011 -0.0001  0.0089  0.9999 -0.0111      0.0000  0.0000  0.0000  0.0000  0.0000  0.0000  0.0000  0.0000  0.0000  0.0000
  o =  0.1076  v =  0.0030  0.0002  0.0129  0.9995 -0.0301  0.0000  0.0000  0.0000  0.0000  0.0000      0.0000  0.0000  0.0000  0.0000  0.0000  0.0000  0.0000  0.0000  0.0000  0.0000
  o =  0.1124  v =  0.0000  0.0000  0.0000  0.0000  0.0000  1.0000 -0.0079 -0.0002  0.0010 -0.0005      0.0000  0.0000  0.0000  0.0000  0.0000  0.0000  0.0000  0.0000  0.0000  0.0000
  o =  0.1134  v =  1.0000  0.0036 -0.0001 -0.0030 -0.0000  0.0000  0.0000  0.0000  0.0000  0.0000      0.0000  0.0000  0.0000  0.0000  0.0000  0.0000  0.0000  0.0000  0.0000  0.0000
  o =  0.2385  v =  0.0000  0.0000  0.0000  0.0000  0.0000  0.0003  0.0000  0.9874 -0.0070  0.1582      0.0000  0.0000  0.0000  0.0000  0.0000  0.0000  0.0000  0.0000  0.0000  0.0000
  o =  0.2386  v = -0.0001 -0.0000 -0.9914  0.0089 -0.1305  0.0000  0.0000  0.0000  0.0000  0.0000      0.0000  0.0000  0.0000  0.0000  0.0000  0.0000  0.0000  0.0000  0.0000  0.0000
  o =  0.2496  v =  0.0000  0.0000  0.0000  0.0000  0.0000 -0.0005 -0.0001  0.1581 -0.0124 -0.9873      0.0000  0.0000  0.0000  0.0000  0.0000  0.0000  0.0000  0.0000  0.0000  0.0000
  o =  0.2506  v =  0.0001  0.0000 -0.1302  0.0315  0.9910  0.0000  0.0000  0.0000  0.0000  0.0000      0.0000  0.0000  0.0000  0.0000  0.0000  0.0000  0.0000  0.0000  0.0000  0.0000
atom =  19  type =  1  l = 2
 
 onsite density matrix
 
spin component  1
 
  0.1183 -0.0000 -0.0000  0.0000  0.0000
 -0.0000  0.0985 -0.0000  0.0000 -0.0001
 -0.0000 -0.0000  0.2400 -0.0000 -0.0000
  0.0000  0.0000 -0.0000  0.0983 -0.0000
  0.0000 -0.0001 -0.0000 -0.0000  0.2479
 
spin component  2
 
  0.1158  0.0000  0.0000 -0.0002  0.0000
  0.0000  0.0981  0.0000  0.0001 -0.0001
  0.0000  0.0000  0.2399 -0.0000 -0.0000
 -0.0002  0.0001 -0.0000  0.0983 -0.0000
  0.0000 -0.0001 -0.0000 -0.0000  0.2478
 
 occupancies and eigenvectors
 
  o =  0.0981  v =  0.0000  0.0000  0.0000  0.0000  0.0000  0.0057 -0.9185  0.0001  0.3954 -0.0004      0.0000  0.0000  0.0000  0.0000  0.0000  0.0000  0.0000  0.0000  0.0000  0.0000
  o =  0.0983  v =  0.0025  0.0568  0.0000 -0.9984  0.0001  0.0000  0.0000  0.0000  0.0000  0.0000      0.0000  0.0000  0.0000  0.0000  0.0000  0.0000  0.0000  0.0000  0.0000  0.0000
  o =  0.0983  v =  0.0000  0.0000  0.0000  0.0000  0.0000  0.0111  0.3954  0.0000  0.9184  0.0003      0.0000  0.0000  0.0000  0.0000  0.0000  0.0000  0.0000  0.0000  0.0000  0.0000
  o =  0.0985  v = -0.0020 -0.9984 -0.0001 -0.0568 -0.0009  0.0000  0.0000  0.0000  0.0000  0.0000      0.0000  0.0000  0.0000  0.0000  0.0000  0.0000  0.0000  0.0000  0.0000  0.0000
  o =  0.1158  v =  0.0000  0.0000  0.0000  0.0000  0.0000  0.9999  0.0008 -0.0000 -0.0124 -0.0000      0.0000  0.0000  0.0000  0.0000  0.0000  0.0000  0.0000  0.0000  0.0000  0.0000
  o =  0.1183  v =  1.0000 -0.0021  0.0000  0.0024 -0.0000  0.0000  0.0000  0.0000  0.0000  0.0000      0.0000  0.0000  0.0000  0.0000  0.0000  0.0000  0.0000  0.0000  0.0000  0.0000
  o =  0.2399  v =  0.0000  0.0000  0.0000  0.0000  0.0000 -0.0000 -0.0001 -1.0000  0.0001 -0.0027      0.0000  0.0000  0.0000  0.0000  0.0000  0.0000  0.0000  0.0000  0.0000  0.0000
  o =  0.2400  v = -0.0000 -0.0002  1.0000 -0.0000  0.0020  0.0000  0.0000  0.0000  0.0000  0.0000      0.0000  0.0000  0.0000  0.0000  0.0000  0.0000  0.0000  0.0000  0.0000  0.0000
  o =  0.2478  v =  0.0000  0.0000  0.0000  0.0000  0.0000  0.0000 -0.0004 -0.0027 -0.0001  1.0000      0.0000  0.0000  0.0000  0.0000  0.0000  0.0000  0.0000  0.0000  0.0000  0.0000
  o =  0.2479  v =  0.0000 -0.0009 -0.0020 -0.0000  1.0000  0.0000  0.0000  0.0000  0.0000  0.0000      0.0000  0.0000  0.0000  0.0000  0.0000  0.0000  0.0000  0.0000  0.0000  0.0000
atom =  20  type =  1  l = 2
 
 onsite density matrix
 
spin component  1
 
  0.1181 -0.0002  0.0001  0.0000  0.0000
 -0.0002  0.0986  0.0001  0.0001 -0.0000
  0.0001  0.0001  0.2403 -0.0001  0.0000
  0.0000  0.0001 -0.0001  0.0984  0.0001
  0.0000 -0.0000  0.0000  0.0001  0.2478
 
spin component  2
 
  0.1147  0.0001  0.0000 -0.0000  0.0001
  0.0001  0.0982  0.0001  0.0001  0.0001
  0.0000  0.0001  0.2401 -0.0001  0.0000
[...]
      9.50690      1.90148      4.87388        -0.003424     -0.005547     -0.001402
      1.90122      5.70394      4.87388         0.004938      0.006239      0.002881
      5.70406      5.70341      4.87449        -0.001424      0.012093      0.003653
      9.50691      5.70394      4.87388        -0.003401      0.006828     -0.002578
      1.90071      9.50677      4.87326         0.010482     -0.000317     -0.002539
      5.70406      9.50677      4.87387        -0.001536     -0.000218     -0.001874
      9.50742      9.50677      4.87326        -0.008641     -0.001241     -0.008046
      0.00000      1.90133      2.43668         0.000806     -0.006640      0.001561
      3.80292      1.90125      2.43704         0.000878     -0.007315     -0.002420
      7.60520      1.90125      2.43704        -0.001845     -0.006941     -0.003412
      0.00000      5.70408      2.43668         0.000617      0.006762      0.002790
      3.80293      5.70418      2.43704         0.001480      0.007032     -0.001610
      7.60519      5.70418      2.43704        -0.002267      0.007524     -0.001936
     11.40813      9.50679      2.43521         0.000365      0.000080      0.013698
      3.80269      9.50678      2.43702         0.008796      0.000226      0.004463
      7.60544      9.50678      2.43702        -0.009485     -0.000412      0.003511
      1.90145     11.40791      7.31071         0.005860     -0.002099     -0.001083
      5.70406      0.00001      7.31073        -0.001032     -0.010503     -0.002923
      9.50667     11.40791      7.31071        -0.004534     -0.002312      0.003397
      1.90137      3.80271      7.31107         0.005783      0.000060     -0.003540
      5.70406      3.80271      7.31254        -0.000932      0.000621     -0.011236
      9.50676      3.80271      7.31107        -0.004494      0.000268      0.000573
      1.90146      7.60563      7.31072         0.005629      0.001953     -0.000284
      5.70406      7.60538      7.31074        -0.000344      0.009725     -0.002400
      9.50667      7.60563      7.31072        -0.005081      0.001983      0.003649
     11.40813     11.40801      2.01463        -0.000011      0.011409      0.000741
      3.80307      0.00001      2.01584        -0.000083      0.008817      0.000786
      7.60506      0.00001      2.01584         0.000146      0.008756     -0.000053
      0.00000      3.80270      2.01558        -0.000613      0.000123     -0.002874
      3.80198      3.80271      2.01589         0.001688      0.000286     -0.004231
      7.60615      3.80271      2.01589        -0.001028      0.000242     -0.005187
     11.40813      7.60555      2.01462        -0.000072     -0.011595      0.001603
      3.80309      7.60543      2.01581        -0.000042     -0.009100      0.001830
      7.60504      7.60543      2.01581         0.000290     -0.009119      0.001399
      1.90185      1.90131      6.88963         0.000056      0.007905     -0.003175
      5.70406      1.90134      6.89006        -0.000616      0.008220      0.000393
      9.50628      1.90131      6.88963         0.000374      0.007914     -0.003892
      1.90187      5.70411      6.88966         0.000387     -0.008261     -0.003854
      5.70406      5.70407      6.89008        -0.000970     -0.008560      0.000736
      9.50626      5.70411      6.88966         0.000504     -0.008371     -0.003752
      1.90084      9.50677      6.88908         0.000269      0.000369      0.001874
      5.70406      9.50675      6.88950        -0.001198      0.000434      0.001235
      9.50729      9.50677      6.88908         0.000849      0.000414      0.001638
     11.40813      1.90244      4.45206        -0.003859     -0.001903     -0.002483
      3.80260      1.90284      4.45278        -0.003964     -0.003738     -0.001447
      7.60553      1.90284      4.45278         0.007754     -0.003265     -0.000907
      0.00000      5.70307      4.45205        -0.003035      0.002548     -0.002346
      3.80259      5.70266      4.45279        -0.004297      0.003754     -0.002227
      7.60554      5.70266      4.45279         0.007264      0.003295     -0.001468
     11.40813      9.50669      4.45045        -0.003629     -0.000632      0.007132
      3.80233      9.50669      4.45316        -0.009118     -0.000030     -0.007048
      7.60580      9.50669      4.45316         0.012590      0.000010     -0.006258
      1.90172      0.00020      9.32631        -0.014494     -0.001243     -0.003351
      5.70406     11.40802      9.32618        -0.000433      0.000783      0.001280
      9.50641      0.00020      9.32631         0.015006     -0.000779     -0.002829
      1.90107      3.80265      9.32686        -0.000950      0.000264     -0.005563
      5.70406      3.80263      9.32812        -0.000437     -0.000104     -0.003726
      9.50705      3.80265      9.32686         0.001514     -0.000075     -0.005449
      1.90171      7.60529      9.32630        -0.013888      0.000950     -0.003266
      5.70406      7.60561      9.32620        -0.001052     -0.000721      0.000977
      9.50642      7.60529      9.32630         0.014981      0.000973     -0.003161
      1.90001      0.00010      5.29494         0.003293      0.008176      0.000732
      5.70406      0.00036      5.29456        -0.000123      0.013463      0.006479
      9.50812      0.00010      5.29494        -0.003223      0.008458      0.001974
      1.90041      3.80270      5.29572         0.001305     -0.000541      0.002960
      5.70406      3.80269      5.29732         0.000332     -0.000956     -0.005602
      9.50772      3.80270      5.29572        -0.001656     -0.001362      0.004291
      1.89998      7.60532      5.29498         0.002692     -0.007630     -0.000043
      5.70406      7.60505      5.29459        -0.000150     -0.012510      0.006381
      9.50815      7.60532      5.29498        -0.002633     -0.007060      0.000967
      0.00000      1.90166      0.42088        -0.000495      0.000849      0.005867
      3.80245      1.90101      0.42145         0.001171      0.014495      0.002708
      7.60568      1.90101      0.42145        -0.000537      0.014462      0.002805
      0.00000      5.70378      0.42087        -0.000153     -0.001535      0.006774
      3.80243      5.70442      0.42143         0.000726     -0.014634      0.003574
      7.60569      5.70442      0.42143        -0.000543     -0.015132      0.004090
     11.40813      9.50676      0.41965         0.000060      0.000750      0.003080
      3.80276      9.50677      0.42159        -0.000866      0.000072     -0.002112
      7.60537      9.50677      0.42159         0.000830      0.000712     -0.002184
      1.90141      1.90099      2.85813        -0.007828     -0.000628      0.002062
      5.70406      1.90201      2.85864         0.000019     -0.000211     -0.000683
      9.50672      1.90099      2.85813         0.007854     -0.000507      0.003701
      1.90142      5.70449      2.85812        -0.007790      0.001279      0.002396
      5.70406      5.70349      2.85864        -0.000018      0.000807     -0.001396
      9.50671      5.70449      2.85812         0.007867      0.000649      0.003198
      1.90138      9.50672      2.85769        -0.007811     -0.000661     -0.000828
      5.70406      9.50670      2.85823         0.000027     -0.000595      0.000285
      9.50675      9.50672      2.85769         0.007968     -0.000319      0.000430
     11.40813      0.00066      7.73184        -0.002295     -0.002104      0.004116
      3.80269     11.40769      7.73193        -0.005156     -0.000496      0.000194
      7.60544     11.40769      7.73193         0.007349     -0.000176      0.000489
      0.00000      3.80263      7.73215        -0.002425     -0.000050      0.000606
      3.80282      3.80264      7.73315        -0.007632     -0.000107     -0.001810
      7.60531      3.80265      7.73315         0.009897     -0.000054     -0.001482
      0.00000      7.60484      7.73184        -0.002274      0.002147      0.003715
      3.80270      7.60592      7.73194        -0.005093      0.000690     -0.000352
      7.60543      7.60592      7.73194         0.007303      0.000198     -0.000463
 -----------------------------------------------------------------------------------
    total drift:                                0.000193      0.000089      0.000467


--------------------------------------------------------------------------------------------------------



  FREE ENERGIE OF THE ION-ELECTRON SYSTEM (eV)
  ---------------------------------------------------
  free  energy   TOTEN  =      -862.75012503 eV

  energy  without entropy=     -862.75012503  energy(sigma->0) =     -862.75012503
 


--------------------------------------------------------------------------------------------------------


    POTLOK:  cpu time    0.1686: real time    0.1687


--------------------------------------------------------------------------------------------------------


 writing wavefunctions
     LOOP+:  cpu time  956.5987: real time  957.4946
    4ORBIT:  cpu time    0.0000: real time    0.0000
 


 total charge     
 
# of ion       s       p       d       tot
------------------------------------------
    1        2.226   6.298   1.576  10.100
    2        2.226   6.298   1.576  10.100
    3        2.226   6.298   1.576  10.100
    4        2.226   6.299   1.576  10.100
    5        2.226   6.298   1.575  10.099
    6        2.226   6.298   1.576  10.100
    7        2.226   6.298   1.576  10.100
    8        2.226   6.298   1.576  10.100
    9        2.226   6.298   1.576  10.100
   10        2.226   6.298   1.575  10.099
   11        2.226   6.298   1.575  10.099
   12        2.226   6.298   1.576  10.100
   13        2.226   6.298   1.575  10.099
   14        2.226   6.298   1.574  10.098
   15        2.226   6.298   1.576  10.100
   16        2.226   6.298   1.576  10.100
   17        2.226   6.298   1.573  10.097
   18        2.226   6.298   1.577  10.100
   19        2.226   6.298   1.575  10.099
   20        2.226   6.298   1.575  10.099
   21        2.226   6.298   1.575  10.099
   22        2.226   6.298   1.575  10.099
   23        2.226   6.298   1.575  10.099
   24        2.226   6.298   1.576  10.100
   25        2.226   6.298   1.576  10.100
   26        2.226   6.298   1.576  10.100
   27        2.226   6.298   1.576  10.100
   28        2.226   6.298   1.576  10.100
   29        2.226   6.298   1.575  10.099
   30        2.226   6.298   1.576  10.100
   31        2.226   6.298   1.575  10.099
   32        2.226   6.298   1.575  10.099
   33        2.226   6.298   1.575  10.099
   34        2.226   6.298   1.576  10.100
   35        2.226   6.298   1.576  10.099
   36        2.226   6.298   1.576  10.100
   37        1.595   3.538   0.000   5.133
   38        1.595   3.538   0.000   5.133
   39        1.595   3.539   0.000   5.133
   40        1.595   3.539   0.000   5.133
   41        1.595   3.538   0.000   5.133
   42        1.595   3.538   0.000   5.133
   43        1.595   3.538   0.000   5.133
   44        1.595   3.539   0.000   5.133
   45        1.595   3.538   0.000   5.133
   46        1.595   3.538   0.000   5.133
   47        1.595   3.538   0.000   5.133
   48        1.595   3.538   0.000   5.133
   49        1.595   3.538   0.000   5.133
   50        1.595   3.538   0.000   5.133
   51        1.595   3.538   0.000   5.133
   52        1.595   3.539   0.000   5.133
   53        1.595   3.538   0.000   5.133
   54        1.595   3.538   0.000   5.133
   55        1.595   3.538   0.000   5.133
   56        1.595   3.538   0.000   5.133
   57        1.595   3.538   0.000   5.133
   58        1.595   3.538   0.000   5.133
   59        1.595   3.538   0.000   5.133
   60        1.595   3.538   0.000   5.133
   61        1.595   3.539   0.000   5.133
   62        1.595   3.538   0.000   5.133
   63        1.595   3.538   0.000   5.133
   64        1.595   3.538   0.000   5.133
   65        1.595   3.539   0.000   5.133
   66        1.595   3.538   0.000   5.133
   67        1.595   3.538   0.000   5.133
   68        1.595   3.538   0.000   5.133
   69        1.595   3.538   0.000   5.133
   70        1.595   3.538   0.000   5.133
   71        1.595   3.539   0.000   5.133
   72        1.595   3.538   0.000   5.133
   73        1.595   3.538   0.000   5.133
   74        1.595   3.538   0.000   5.133
   75        1.595   3.538   0.000   5.133
   76        1.595   3.539   0.000   5.133
   77        1.595   3.539   0.000   5.133
   78        1.595   3.538   0.000   5.133
   79        1.595   3.538   0.000   5.133
   80        1.595   3.538   0.000   5.133
   81        1.595   3.538   0.000   5.133
   82        1.595   3.538   0.000   5.133
   83        1.595   3.538   0.000   5.133
   84        1.595   3.538   0.000   5.133
   85        1.595   3.539   0.000   5.133
   86        1.595   3.538   0.000   5.133
   87        1.595   3.538   0.000   5.133
   88        1.595   3.538   0.000   5.133
   89        1.595   3.539   0.000   5.133
   90        1.595   3.539   0.000   5.133
   91        1.595   3.538   0.000   5.133
   92        1.595   3.538   0.000   5.133
   93        1.595   3.538   0.000   5.133
   94        1.595   3.538   0.000   5.133
   95        1.595   3.539   0.000   5.133
   96        1.595   3.538   0.000   5.133
   97        1.595   3.538   0.000   5.133
   98        1.595   3.539   0.000   5.133
   99        1.595   3.538   0.000   5.133
  100        1.595   3.538   0.000   5.133
  101        1.595   3.538   0.000   5.133
  102        1.595   3.539   0.000   5.133
  103        1.595   3.538   0.000   5.133
  104        1.595   3.538   0.000   5.133
  105        1.595   3.538   0.000   5.133
  106        1.595   3.538   0.000   5.133
  107        1.595   3.539   0.000   5.133
  108        1.595   3.539   0.000   5.133
--------------------------------------------------
tot        194.952 481.502  56.716 733.170
 


 magnetization (x)
 
# of ion       s       p       d       tot
------------------------------------------
    1       -0.000  -0.000  -0.002  -0.003
    2       -0.000  -0.000  -0.005  -0.005
    3       -0.000  -0.000  -0.005  -0.005
    4       -0.000  -0.000  -0.000  -0.000
    5       -0.000  -0.000  -0.003  -0.003
    6       -0.000  -0.000  -0.002  -0.002
    7       -0.000  -0.000  -0.003  -0.003
    8       -0.000  -0.000  -0.005  -0.005
    9       -0.000  -0.000  -0.005  -0.005
   10        0.000   0.000   0.008   0.008
   11        0.000   0.000   0.009   0.010
   12        0.000   0.000   0.008   0.008
   13        0.000   0.000   0.009   0.009
   14        0.000   0.000   0.009   0.009
   15        0.000   0.000   0.009   0.009
   16        0.000   0.000   0.012   0.012
   17        0.000   0.000   0.012   0.012
   18        0.000   0.000   0.011   0.011
   19       -0.000  -0.000  -0.001  -0.001
   20       -0.000  -0.000  -0.003  -0.003
   21       -0.000  -0.000  -0.004  -0.004
   22       -0.000  -0.000  -0.001  -0.001
   23       -0.000  -0.000  -0.003  -0.003
   24       -0.000  -0.000  -0.003  -0.003
   25        0.000   0.000   0.000   0.000
   26       -0.000  -0.000  -0.002  -0.002
   27       -0.000  -0.000  -0.002  -0.002
   28       -0.000  -0.000  -0.003  -0.003
   29       -0.000  -0.000  -0.003  -0.003
   30       -0.000  -0.000  -0.004  -0.005
   31       -0.000  -0.000   0.001   0.001
   32        0.000   0.000   0.001   0.001
   33       -0.000  -0.000  -0.001  -0.001
   34       -0.000  -0.000  -0.003  -0.003
   35       -0.000  -0.000  -0.003  -0.003
   36       -0.000  -0.000  -0.004  -0.004
   37       -0.000   0.000   0.000   0.000
   38        0.000   0.000   0.000   0.000
   39        0.000   0.000   0.000   0.000
   40        0.000   0.000   0.000   0.000
   41        0.000   0.001   0.000   0.001
   42        0.000   0.001   0.000   0.001
   43       -0.000   0.000   0.000   0.000
   44        0.000   0.000   0.000   0.000
   45        0.000   0.000   0.000   0.000
   46       -0.000  -0.000   0.000  -0.000
   47       -0.000  -0.000   0.000  -0.000
   48       -0.000  -0.000   0.000  -0.000
   49       -0.000  -0.000   0.000  -0.000
   50       -0.000  -0.000   0.000  -0.000
   51       -0.000  -0.000   0.000  -0.000
   52        0.000   0.000   0.000   0.000
   53       -0.000  -0.000   0.000  -0.000
   54        0.000   0.000   0.000   0.000
   55       -0.000  -0.001   0.000  -0.001
   56       -0.000  -0.001   0.000  -0.001
   57       -0.000  -0.001   0.000  -0.001
   58       -0.000  -0.001   0.000  -0.001
   59       -0.000  -0.001   0.000  -0.001
   60       -0.000  -0.001   0.000  -0.001
   61       -0.000  -0.001   0.000  -0.001
   62       -0.000  -0.001   0.000  -0.001
   63       -0.000  -0.001   0.000  -0.001
   64        0.000   0.000   0.000   0.000
   65        0.000   0.000   0.000   0.000
   66        0.000   0.000   0.000   0.000
   67        0.000   0.000   0.000   0.000
   68        0.000   0.000   0.000   0.000
   69        0.000   0.000   0.000   0.000
   70        0.000   0.000   0.000   0.000
   71        0.000   0.000   0.000   0.001
   72        0.000   0.000   0.000   0.000
   73       -0.000  -0.001   0.000  -0.001
   74       -0.000  -0.001   0.000  -0.001
   75       -0.000  -0.001   0.000  -0.001
   76       -0.000  -0.001   0.000  -0.001
   77       -0.000  -0.001   0.000  -0.001
   78       -0.000  -0.001   0.000  -0.001
   79       -0.000  -0.001   0.000  -0.001
   80       -0.000  -0.001   0.000  -0.001
   81       -0.000  -0.001   0.000  -0.001
   82        0.000   0.000   0.000   0.000
   83        0.000   0.000   0.000   0.000
   84        0.000   0.000   0.000   0.000
   85        0.000   0.000   0.000   0.000
   86        0.000   0.000   0.000   0.000
   87        0.000   0.000   0.000   0.000
   88        0.000   0.000   0.000   0.000
   89        0.000   0.001   0.000   0.001
   90        0.000   0.001   0.000   0.001
   91       -0.000  -0.000   0.000  -0.000
   92        0.000   0.000   0.000   0.000
   93       -0.000  -0.000   0.000  -0.000
   94       -0.000  -0.000   0.000  -0.000
   95        0.000   0.000   0.000   0.000
   96       -0.000  -0.000   0.000  -0.000
   97       -0.000  -0.000   0.000  -0.000
   98       -0.000  -0.000   0.000  -0.000
   99       -0.000  -0.000   0.000  -0.000
  100        0.000   0.000   0.000   0.000
  101        0.000   0.000   0.000   0.000
  102        0.000   0.000   0.000   0.000
  103        0.000   0.000   0.000   0.000
  104        0.000   0.000   0.000   0.000
  105       -0.000   0.000   0.000   0.000
  106        0.000   0.000   0.000   0.000
  107        0.000   0.000   0.000   0.000
  108        0.000   0.000   0.000   0.000
--------------------------------------------------
tot         -0.000  -0.007   0.017   0.010
 
 BZINTS: Fermi energy:  6.405893;865.000000 electrons
         Band energy:***********;  BLOECHL correction: -0.152740

 total amount of memory used by VASP MPI-rank0   121301. kBytes
=======================================================================

   base      :      30000. kBytes
   nonl-proj :       4314. kBytes
   fftplans  :       3336. kBytes
   grid      :       8284. kBytes
   one-center:        155. kBytes
   wavefun   :      75212. kBytes
 
  
  
 General timing and accounting informations for this job:
 ========================================================
  
                  Total CPU time used (sec):     1002.807
                            User time (sec):      993.937
                          System time (sec):        8.870
                         Elapsed time (sec):     1004.122
  
                   Maximum memory used (kb):      254336.
                   Average memory used (kb):           0.
  
                          Minor page faults:        33820
                          Major page faults:            0
                 Voluntary context switches:           76
